 Entering Gaussian System, Link 0=g16
 Input=PC_opt_freq_6_31G.com
 Output=PC_opt_freq_6_31G.log
 Initial command:
 /apps/commercial/G16/g16.linda/l1.exe "/scratch/x1711a05/Gau-47904.inp" -scrdir="/scratch/x1711a05/"
 Default linda workers: node5063
 Entering Link 1 = /apps/commercial/G16/g16.linda/l1.exe PID=     47905.
  
 Copyright (c) 1988,1990,1992,1993,1995,1998,2003,2009,2016,
            Gaussian, Inc.  All Rights Reserved.
  
 This is part of the Gaussian(R) 16 program.  It is based on
 the Gaussian(R) 09 system (copyright 2009, Gaussian, Inc.),
 the Gaussian(R) 03 system (copyright 2003, Gaussian, Inc.),
 the Gaussian(R) 98 system (copyright 1998, Gaussian, Inc.),
 the Gaussian(R) 94 system (copyright 1995, Gaussian, Inc.),
 the Gaussian 92(TM) system (copyright 1992, Gaussian, Inc.),
 the Gaussian 90(TM) system (copyright 1990, Gaussian, Inc.),
 the Gaussian 88(TM) system (copyright 1988, Gaussian, Inc.),
 the Gaussian 86(TM) system (copyright 1986, Carnegie Mellon
 University), and the Gaussian 82(TM) system (copyright 1983,
 Carnegie Mellon University). Gaussian is a federally registered
 trademark of Gaussian, Inc.
  
 This software contains proprietary and confidential information,
 including trade secrets, belonging to Gaussian, Inc.
  
 This software is provided under written license and may be
 used, copied, transmitted, or stored only in accord with that
 written license.
  
 The following legend is applicable only to US Government
 contracts under FAR:
  
                    RESTRICTED RIGHTS LEGEND
  
 Use, reproduction and disclosure by the US Government is
 subject to restrictions as set forth in subparagraphs (a)
 and (c) of the Commercial Computer Software - Restricted
 Rights clause in FAR 52.227-19.
  
 Gaussian, Inc.
 340 Quinnipiac St., Bldg. 40, Wallingford CT 06492
  
  
 ---------------------------------------------------------------
 Warning -- This program may not be used in any manner that
 competes with the business of Gaussian, Inc. or will provide
 assistance to any competitor of Gaussian, Inc.  The licensee
 of this program is prohibited from giving any competitor of
 Gaussian, Inc. access to this program.  By using this program,
 the user acknowledges that Gaussian, Inc. is engaged in the
 business of creating and licensing software in the field of
 computational chemistry and represents and warrants to the
 licensee that it is not a competitor of Gaussian, Inc. and that
 it will not use this program in any manner prohibited above.
 ---------------------------------------------------------------
  

 Cite this work as:
 Gaussian 16, Revision A.03,
 M. J. Frisch, G. W. Trucks, H. B. Schlegel, G. E. Scuseria, 
 M. A. Robb, J. R. Cheeseman, G. Scalmani, V. Barone, 
 G. A. Petersson, H. Nakatsuji, X. Li, M. Caricato, A. V. Marenich, 
 J. Bloino, B. G. Janesko, R. Gomperts, B. Mennucci, H. P. Hratchian, 
 J. V. Ortiz, A. F. Izmaylov, J. L. Sonnenberg, D. Williams-Young, 
 F. Ding, F. Lipparini, F. Egidi, J. Goings, B. Peng, A. Petrone, 
 T. Henderson, D. Ranasinghe, V. G. Zakrzewski, J. Gao, N. Rega, 
 G. Zheng, W. Liang, M. Hada, M. Ehara, K. Toyota, R. Fukuda, 
 J. Hasegawa, M. Ishida, T. Nakajima, Y. Honda, O. Kitao, H. Nakai, 
 T. Vreven, K. Throssell, J. A. Montgomery, Jr., J. E. Peralta, 
 F. Ogliaro, M. J. Bearpark, J. J. Heyd, E. N. Brothers, K. N. Kudin, 
 V. N. Staroverov, T. A. Keith, R. Kobayashi, J. Normand, 
 K. Raghavachari, A. P. Rendell, J. C. Burant, S. S. Iyengar, 
 J. Tomasi, M. Cossi, J. M. Millam, M. Klene, C. Adamo, R. Cammi, 
 J. W. Ochterski, R. L. Martin, K. Morokuma, O. Farkas, 
 J. B. Foresman, and D. J. Fox, Gaussian, Inc., Wallingford CT, 2016.
 
 ******************************************
 Gaussian 16:  ES64L-G16RevA.03 25-Dec-2016
                22-Aug-2019 
 ******************************************
 %nprocshared=64
 Will use up to   64 processors via shared memory.
 %mem=64GB
 %chk=PC_opt_freq_6_31G.chk
 SetLPE:    new flags="-opt 'Tsnet.Node.lindarsharg: ssh'  -nodelist 'node5063' -env GAUSS_MDEF=8589934592 -env GAUSS_EXEDIR="/apps/commercial/G16/g16.linda""
 Will use up to    1 processors via Linda.
 ------------------------------------------------------------------
 # opt=(calcfc,tight) freq cam-b3lyp/gen nosymm pseudo=read scf=xqc
 ------------------------------------------------------------------
 1/7=10,10=4,18=20,19=15,26=3,38=1/1,3;
 2/9=110,12=2,15=1,17=6,18=5,40=1/2;
 3/5=7,11=2,16=1,17=8,25=1,30=1,71=2,74=-40,140=1/1,2,3;
 4//1;
 5/5=2,8=3,13=1,38=5/2,8;
 8/6=4,10=90,11=11/1;
 11/6=1,8=1,9=11,15=111,16=1,31=1/1,2,10;
 10/6=1,13=1,31=1/2;
 6/7=2,8=2,9=2,10=2,28=1/1;
 7/10=1,18=20,25=1,30=1/1,2,3,16;
 1/7=10,10=4,18=20,19=15,26=3/3(2);
 2/9=110,15=1/2;
 99//99;
 2/9=110,15=1/2;
 3/5=7,6=1,11=2,16=1,17=8,25=1,30=1,71=1,74=-40,82=7/1,2,3;
 4/5=5,16=3,69=1/1;
 5/5=2,8=3,13=1,38=5/2,8;
 7/30=1/1,2,3,16;
 1/7=10,18=20,19=15,26=3/3(-5);
 2/9=110,15=1/2;
 6/7=2,8=2,9=2,10=2,19=2,28=1/1;
 99/9=1/99;
 -----------------
 PC_opt_freq_6_31G
 -----------------
 Symbolic Z-matrix:
 Charge =  0 Multiplicity = 1
 C                     1.00534   1.503    -0.47278 
 C                    -0.46406   1.09632  -0.34994 
 O                     1.66682   0.42341   0.20092 
 C                     1.36756   2.81967   0.17224 
 H                    -1.05155   1.30333  -1.24505 
 H                    -0.9449    1.56106   0.5182 
 H                     2.44175   2.99994   0.10181 
 H                     1.08362   2.8179    1.22748 
 H                     0.84851   3.64079  -0.33031 
 H                     1.32585   1.48352  -1.52099 
 C                     0.844    -0.64871   0.27261 
 O                    -0.39898  -0.31263  -0.15154 
 O                     1.16241  -1.73126   0.65245 
 

 GradGradGradGradGradGradGradGradGradGradGradGradGradGradGradGradGradGrad
 Berny optimization.
 Initialization pass.
                           ----------------------------
                           !    Initial Parameters    !
                           ! (Angstroms and Degrees)  !
 --------------------------                            --------------------------
 ! Name  Definition              Value          Derivative Info.                !
 --------------------------------------------------------------------------------
 ! R1    R(1,2)                  1.5296         calculate D2E/DX2 analytically  !
 ! R2    R(1,3)                  1.4342         calculate D2E/DX2 analytically  !
 ! R3    R(1,4)                  1.5103         calculate D2E/DX2 analytically  !
 ! R4    R(1,10)                 1.0963         calculate D2E/DX2 analytically  !
 ! R5    R(2,5)                  1.0905         calculate D2E/DX2 analytically  !
 ! R6    R(2,6)                  1.0958         calculate D2E/DX2 analytically  !
 ! R7    R(2,12)                 1.4243         calculate D2E/DX2 analytically  !
 ! R8    R(3,11)                 1.3534         calculate D2E/DX2 analytically  !
 ! R9    R(4,7)                  1.0915         calculate D2E/DX2 analytically  !
 ! R10   R(4,8)                  1.0928         calculate D2E/DX2 analytically  !
 ! R11   R(4,9)                  1.0937         calculate D2E/DX2 analytically  !
 ! R12   R(11,12)                1.3557         calculate D2E/DX2 analytically  !
 ! R13   R(11,13)                1.1906         calculate D2E/DX2 analytically  !
 ! A1    A(2,1,3)              101.8414         calculate D2E/DX2 analytically  !
 ! A2    A(2,1,4)              115.3344         calculate D2E/DX2 analytically  !
 ! A3    A(2,1,10)             110.6658         calculate D2E/DX2 analytically  !
 ! A4    A(3,1,4)              110.1829         calculate D2E/DX2 analytically  !
 ! A5    A(3,1,10)             107.5128         calculate D2E/DX2 analytically  !
 ! A6    A(4,1,10)             110.7164         calculate D2E/DX2 analytically  !
 ! A7    A(1,2,5)              113.6491         calculate D2E/DX2 analytically  !
 ! A8    A(1,2,6)              111.8628         calculate D2E/DX2 analytically  !
 ! A9    A(1,2,12)             103.3147         calculate D2E/DX2 analytically  !
 ! A10   A(5,2,6)              109.4734         calculate D2E/DX2 analytically  !
 ! A11   A(5,2,12)             109.0705         calculate D2E/DX2 analytically  !
 ! A12   A(6,2,12)             109.2215         calculate D2E/DX2 analytically  !
 ! A13   A(1,3,11)             109.9251         calculate D2E/DX2 analytically  !
 ! A14   A(1,4,7)              110.6387         calculate D2E/DX2 analytically  !
 ! A15   A(1,4,8)              110.4076         calculate D2E/DX2 analytically  !
 ! A16   A(1,4,9)              110.1488         calculate D2E/DX2 analytically  !
 ! A17   A(7,4,8)              108.5603         calculate D2E/DX2 analytically  !
 ! A18   A(7,4,9)              108.2646         calculate D2E/DX2 analytically  !
 ! A19   A(8,4,9)              108.76           calculate D2E/DX2 analytically  !
 ! A20   A(3,11,12)            110.1499         calculate D2E/DX2 analytically  !
 ! A21   A(3,11,13)            125.0705         calculate D2E/DX2 analytically  !
 ! A22   A(12,11,13)           124.7796         calculate D2E/DX2 analytically  !
 ! A23   A(2,12,11)            109.3113         calculate D2E/DX2 analytically  !
 ! D1    D(3,1,2,5)           -140.7858         calculate D2E/DX2 analytically  !
 ! D2    D(3,1,2,6)             94.6141         calculate D2E/DX2 analytically  !
 ! D3    D(3,1,2,12)           -22.7402         calculate D2E/DX2 analytically  !
 ! D4    D(4,1,2,5)             99.92           calculate D2E/DX2 analytically  !
 ! D5    D(4,1,2,6)            -24.68           calculate D2E/DX2 analytically  !
 ! D6    D(4,1,2,12)          -142.0344         calculate D2E/DX2 analytically  !
 ! D7    D(10,1,2,5)           -26.7261         calculate D2E/DX2 analytically  !
 ! D8    D(10,1,2,6)          -151.3262         calculate D2E/DX2 analytically  !
 ! D9    D(10,1,2,12)           91.3195         calculate D2E/DX2 analytically  !
 ! D10   D(2,1,3,11)            19.2155         calculate D2E/DX2 analytically  !
 ! D11   D(4,1,3,11)           142.0953         calculate D2E/DX2 analytically  !
 ! D12   D(10,1,3,11)          -97.1614         calculate D2E/DX2 analytically  !
 ! D13   D(2,1,4,7)            175.9466         calculate D2E/DX2 analytically  !
 ! D14   D(2,1,4,8)             55.7453         calculate D2E/DX2 analytically  !
 ! D15   D(2,1,4,9)            -64.3884         calculate D2E/DX2 analytically  !
 ! D16   D(3,1,4,7)             61.3693         calculate D2E/DX2 analytically  !
 ! D17   D(3,1,4,8)            -58.832          calculate D2E/DX2 analytically  !
 ! D18   D(3,1,4,9)           -178.9657         calculate D2E/DX2 analytically  !
 ! D19   D(10,1,4,7)           -57.433          calculate D2E/DX2 analytically  !
 ! D20   D(10,1,4,8)          -177.6342         calculate D2E/DX2 analytically  !
 ! D21   D(10,1,4,9)            62.232          calculate D2E/DX2 analytically  !
 ! D22   D(1,2,12,11)           19.4577         calculate D2E/DX2 analytically  !
 ! D23   D(5,2,12,11)          140.6537         calculate D2E/DX2 analytically  !
 ! D24   D(6,2,12,11)          -99.7369         calculate D2E/DX2 analytically  !
 ! D25   D(1,3,11,12)           -8.0748         calculate D2E/DX2 analytically  !
 ! D26   D(1,3,11,13)          171.9181         calculate D2E/DX2 analytically  !
 ! D27   D(3,11,12,2)           -8.096          calculate D2E/DX2 analytically  !
 ! D28   D(13,11,12,2)         171.911          calculate D2E/DX2 analytically  !
 --------------------------------------------------------------------------------
 Trust Radius=3.00D-01 FncErr=1.00D-07 GrdErr=1.00D-06 EigMax=2.50D+02 EigMin=1.00D-04
 Number of steps in this run=     74 maximum allowed number of steps=    100.
 GradGradGradGradGradGradGradGradGradGradGradGradGradGradGradGradGradGrad

                          Input orientation:                          
 ---------------------------------------------------------------------
 Center     Atomic      Atomic             Coordinates (Angstroms)
 Number     Number       Type             X           Y           Z
 ---------------------------------------------------------------------
      1          6           0        1.005343    1.503000   -0.472781
      2          6           0       -0.464061    1.096315   -0.349937
      3          8           0        1.666818    0.423408    0.200915
      4          6           0        1.367563    2.819668    0.172243
      5          1           0       -1.051547    1.303331   -1.245048
      6          1           0       -0.944899    1.561064    0.518204
      7          1           0        2.441754    2.999944    0.101811
      8          1           0        1.083616    2.817902    1.227477
      9          1           0        0.848512    3.640788   -0.330307
     10          1           0        1.325847    1.483515   -1.520988
     11          6           0        0.843998   -0.648711    0.272614
     12          8           0       -0.398980   -0.312634   -0.151539
     13          8           0        1.162414   -1.731257    0.652445
 ---------------------------------------------------------------------
                    Distance matrix (angstroms):
                    1          2          3          4          5
     1  C    0.000000
     2  C    1.529585   0.000000
     3  O    1.434202   2.301497   0.000000
     4  C    1.510256   2.568553   2.415044   0.000000
     5  H    2.206142   1.090513   3.202278   3.187489   0.000000
     6  H    2.188348   1.095840   2.866356   2.655420   1.785177
     7  H    2.152736   3.503090   2.692375   1.091488   4.110435
     8  H    2.150807   2.801321   2.669748   1.092771   3.600865
     9  H    2.148263   2.863141   3.362046   1.093713   3.148123
    10  H    1.096285   2.173719   2.050619   2.157331   2.400127
    11  C    2.282872   2.267974   1.353371   3.509109   3.115583
    12  O    2.317724   1.424337   2.221149   3.610654   2.057413
    13  O    3.428006   3.412529   2.258514   4.580786   4.208423
                    6          7          8          9         10
     6  H    0.000000
     7  H    3.703131   0.000000
     8  H    2.489495   1.773359   0.000000
     9  H    2.874290   1.770827   1.777387   0.000000
    10  H    3.052967   2.485615   3.064853   2.509860   0.000000
    11  C    2.853695   3.986813   3.603691   4.331667   2.827645
    12  O    2.063329   4.371170   3.728275   4.149426   2.841931
    13  O    3.911287   4.931954   4.586035   5.470211   3.883977
                   11         12         13
    11  C    0.000000
    12  O    1.355672   0.000000
    13  O    1.190616   2.257617   0.000000
 Symmetry turned off by external request.
 Stoichiometry    C4H6O3
 Framework group  C1[X(C4H6O3)]
 Deg. of freedom    33
 Full point group                 C1      NOp   1
 Rotational constants (GHZ):           6.0189780           2.2445780           1.7399640
 General basis read from cards:  (5D, 7F)
 ======================================================================================================
                                       Pseudopotential Parameters
 ======================================================================================================
  Center     Atomic      Valence      Angular      Power
  Number     Number     Electrons     Momentum     of R      Exponent        Coefficient   SO-Coeffient
 ======================================================================================================
    1          6
                                   No pseudopotential on this center.
    2          6
                                   No pseudopotential on this center.
    3          8
                                   No pseudopotential on this center.
    4          6
                                   No pseudopotential on this center.
    5          1
                                   No pseudopotential on this center.
    6          1
                                   No pseudopotential on this center.
    7          1
                                   No pseudopotential on this center.
    8          1
                                   No pseudopotential on this center.
    9          1
                                   No pseudopotential on this center.
   10          1
                                   No pseudopotential on this center.
   11          6
                                   No pseudopotential on this center.
   12          8
                                   No pseudopotential on this center.
   13          8
                                   No pseudopotential on this center.
 ======================================================================================================
   128 basis functions,   238 primitive gaussians,   135 cartesian basis functions
    27 alpha electrons       27 beta electrons
       nuclear repulsion energy       319.8142434446 Hartrees.
 NAtoms=   13 NActive=   13 NUniq=   13 SFac= 1.00D+00 NAtFMM=   60 NAOKFM=F Big=F
 Integral buffers will be    131072 words long.
 Raffenetti 2 integral format.
 Two-electron integral symmetry is turned off.
 One-electron integrals computed using PRISM.
   1 Symmetry operations used in ECPInt.
 ECPInt:  NShTT=    1081 NPrTT=    5922 LenC2=    1069 LenP2D=    4339.
 LDataN:  DoStor=T MaxTD1= 4 Len=   56
 NBasis=   128 RedAO= T EigKep=  3.48D-03  NBF=   128
 NBsUse=   128 1.00D-06 EigRej= -1.00D+00 NBFU=   128
 ExpMin= 1.61D-01 ExpMax= 5.48D+03 ExpMxC= 8.25D+02 IAcc=3 IRadAn=         5 AccDes= 0.00D+00
 Harris functional with IExCor=20419 and IRadAn=       5 diagonalized for initial guess.
 HarFok:  IExCor=20419 AccDes= 0.00D+00 IRadAn=         5 IDoV= 1 UseB2=F ITyADJ=14
 ICtDFT=  3500011 ScaDFX=  1.000000  1.000000  1.000000  1.000000
 FoFCou: FMM=F IPFlag=           0 FMFlag=      100000 FMFlg1=           0
         NFxFlg=           0 DoJE=T BraDBF=F KetDBF=T FulRan=T
         wScrn=  0.000000 ICntrl=       500 IOpCl=  0 I1Cent=   200000004 NGrid=           0
         NMat0=    1 NMatS0=      1 NMatT0=    0 NMatD0=    1 NMtDS0=    0 NMtDT0=    0
 Symmetry not used in FoFCou.
 Requested convergence on RMS density matrix=1.00D-08 within  32 cycles.
 Requested convergence on MAX density matrix=1.00D-06.
 Requested convergence on             energy=1.00D-06.
 No special actions if energy rises.
 Integral accuracy reduced to 1.0D-05 until final iterations.
 Initial convergence to 1.0D-05 achieved.  Increase integral accuracy.
 SCF Done:  E(RCAM-B3LYP) =  -381.563554576     A.U. after   14 cycles
            NFock= 14  Conv=0.35D-08     -V/T= 2.0063
 QCSCF skips out because SCF is already converged.
 DoSCS=F DFT=T ScalE2(SS,OS)=  1.000000  1.000000
 Range of M.O.s used for correlation:     1   128
 NBasis=   128 NAE=    27 NBE=    27 NFC=     0 NFV=     0
 NROrb=    128 NOA=    27 NOB=    27 NVA=   101 NVB=   101
   1 Symmetry operations used in ECPInt.
 ECPInt:  NShTT=    1081 NPrTT=    5922 LenC2=    1069 LenP2D=    4339.
 LDataN:  DoStor=T MaxTD1= 5 Len=  102
 Symmetrizing basis deriv contribution to polar:
 IMax=3 JMax=2 DiffMx= 0.00D+00
 G2DrvN: will do    14 centers at a time, making    1 passes.
 Calling FoFCou, ICntrl=  3107 FMM=F I1Cent=   0 AccDes= 0.00D+00.
 End of G2Drv F.D. properties file   721 does not exist.
 End of G2Drv F.D. properties file   722 does not exist.
 End of G2Drv F.D. properties file   788 does not exist.
          IDoAtm=1111111111111
          Differentiating once with respect to nuclear coordinates.
 Keep R1 ints in memory in canonical form, NReq=129309181.
          There are    42 degrees of freedom in the 1st order CPHF.  IDoFFX=6 NUNeed=     0.
     36 vectors produced by pass  0 Test12= 6.49D-15 2.38D-09 XBig12= 1.02D-01 8.32D-02.
 AX will form    36 AO Fock derivatives at one time.
     36 vectors produced by pass  1 Test12= 6.49D-15 2.38D-09 XBig12= 6.68D-03 2.10D-02.
     36 vectors produced by pass  2 Test12= 6.49D-15 2.38D-09 XBig12= 2.54D-04 3.01D-03.
     36 vectors produced by pass  3 Test12= 6.49D-15 2.38D-09 XBig12= 3.23D-06 3.81D-04.
     36 vectors produced by pass  4 Test12= 6.49D-15 2.38D-09 XBig12= 1.89D-08 2.00D-05.
     36 vectors produced by pass  5 Test12= 6.49D-15 2.38D-09 XBig12= 7.10D-11 1.37D-06.
     20 vectors produced by pass  6 Test12= 6.49D-15 2.38D-09 XBig12= 2.59D-13 7.99D-08.
      2 vectors produced by pass  7 Test12= 6.49D-15 2.38D-09 XBig12= 6.95D-16 2.98D-09.
 InvSVY:  IOpt=1 It=  1 EMax= 1.11D-15
 Solved reduced A of dimension   238 with    36 vectors.
 End of Minotr F.D. properties file   721 does not exist.
 End of Minotr F.D. properties file   722 does not exist.
 End of Minotr F.D. properties file   788 does not exist.

 **********************************************************************

            Population analysis using the SCF density.

 **********************************************************************

 Alpha  occ. eigenvalues --  -19.27327 -19.27169 -19.20338 -10.43333 -10.34428
 Alpha  occ. eigenvalues --  -10.33755 -10.27440  -1.24320  -1.12786  -1.11733
 Alpha  occ. eigenvalues --   -0.89621  -0.80401  -0.72582  -0.68425  -0.62761
 Alpha  occ. eigenvalues --   -0.58636  -0.56110  -0.52012  -0.51000  -0.50708
 Alpha  occ. eigenvalues --   -0.48583  -0.46669  -0.44256  -0.42842  -0.37388
 Alpha  occ. eigenvalues --   -0.36874  -0.35453
 Alpha virt. eigenvalues --    0.09646   0.12398   0.13184   0.15961   0.17559
 Alpha virt. eigenvalues --    0.19706   0.19810   0.21539   0.23181   0.26177
 Alpha virt. eigenvalues --    0.28717   0.31780   0.41954   0.43833   0.53008
 Alpha virt. eigenvalues --    0.54522   0.56449   0.59062   0.60471   0.62274
 Alpha virt. eigenvalues --    0.62476   0.67144   0.69014   0.71301   0.72306
 Alpha virt. eigenvalues --    0.76084   0.82992   0.85747   0.90301   0.91645
 Alpha virt. eigenvalues --    0.92328   0.94204   0.94311   0.98479   1.00355
 Alpha virt. eigenvalues --    1.07169   1.09951   1.11440   1.13232   1.15837
 Alpha virt. eigenvalues --    1.18372   1.21069   1.28966   1.33232   1.41648
 Alpha virt. eigenvalues --    1.46498   1.51151   1.55565   1.56920   1.63447
 Alpha virt. eigenvalues --    1.66305   1.71580   1.80426   1.83331   1.84632
 Alpha virt. eigenvalues --    1.88587   1.89473   1.89846   1.90746   1.94606
 Alpha virt. eigenvalues --    1.97432   1.99361   2.02644   2.04196   2.07479
 Alpha virt. eigenvalues --    2.09320   2.12580   2.16000   2.17501   2.18742
 Alpha virt. eigenvalues --    2.20431   2.24316   2.30340   2.35420   2.41630
 Alpha virt. eigenvalues --    2.44269   2.50833   2.56536   2.59179   2.60321
 Alpha virt. eigenvalues --    2.68777   2.71364   2.74591   2.75766   2.78397
 Alpha virt. eigenvalues --    2.81185   2.84598   2.88698   2.92938   2.94477
 Alpha virt. eigenvalues --    2.98532   3.01005   3.04451   3.20766   3.26021
 Alpha virt. eigenvalues --    3.28210   3.31792   3.41721   3.48215   3.51227
 Alpha virt. eigenvalues --    3.55471
          Condensed to atoms (all electrons):
               1          2          3          4          5          6
     1  C    4.730020   0.355559   0.238025   0.379124  -0.024382  -0.039469
     2  C    0.355559   4.779809  -0.040595  -0.039379   0.382155   0.379446
     3  O    0.238025  -0.040595   8.198593  -0.043741   0.002462   0.000432
     4  C    0.379124  -0.039379  -0.043741   4.941259   0.000712  -0.004166
     5  H   -0.024382   0.382155   0.002462   0.000712   0.582657  -0.041678
     6  H   -0.039469   0.379446   0.000432  -0.004166  -0.041678   0.608684
     7  H   -0.023990   0.004244  -0.001239   0.387172  -0.000187   0.000085
     8  H   -0.030423  -0.007771   0.000863   0.382495   0.000022   0.005706
     9  H   -0.026703  -0.002021   0.002942   0.370942   0.000548   0.000180
    10  H    0.386629  -0.043633  -0.042981  -0.049205  -0.005423   0.005262
    11  C   -0.045176  -0.052542   0.294749   0.001447   0.002702   0.002094
    12  O   -0.031540   0.248763  -0.094009   0.002198  -0.030007  -0.039178
    13  O    0.000990   0.001544  -0.065928  -0.000073  -0.000060   0.000067
               7          8          9         10         11         12
     1  C   -0.023990  -0.030423  -0.026703   0.386629  -0.045176  -0.031540
     2  C    0.004244  -0.007771  -0.002021  -0.043633  -0.052542   0.248763
     3  O   -0.001239   0.000863   0.002942  -0.042981   0.294749  -0.094009
     4  C    0.387172   0.382495   0.370942  -0.049205   0.001447   0.002198
     5  H   -0.000187   0.000022   0.000548  -0.005423   0.002702  -0.030007
     6  H    0.000085   0.005706   0.000180   0.005262   0.002094  -0.039178
     7  H    0.555085  -0.026831  -0.026509  -0.004665  -0.000283  -0.000076
     8  H   -0.026831   0.570674  -0.025542   0.005442   0.000504  -0.000033
     9  H   -0.026509  -0.025542   0.590032   0.000194   0.000021   0.000044
    10  H   -0.004665   0.005442   0.000194   0.622468   0.002891   0.000839
    11  C   -0.000283   0.000504   0.000021   0.002891   4.089526   0.291934
    12  O   -0.000076  -0.000033   0.000044   0.000839   0.291934   8.162722
    13  O   -0.000001  -0.000015   0.000001   0.000060   0.712008  -0.065878
              13
     1  C    0.000990
     2  C    0.001544
     3  O   -0.065928
     4  C   -0.000073
     5  H   -0.000060
     6  H    0.000067
     7  H   -0.000001
     8  H   -0.000015
     9  H    0.000001
    10  H    0.000060
    11  C    0.712008
    12  O   -0.065878
    13  O    7.812147
 Mulliken charges:
               1
     1  C    0.131337
     2  C    0.034420
     3  O   -0.449572
     4  C   -0.328784
     5  H    0.130478
     6  H    0.122535
     7  H    0.137194
     8  H    0.124908
     9  H    0.115872
    10  H    0.122124
    11  C    0.700127
    12  O   -0.445776
    13  O   -0.394863
 Sum of Mulliken charges =  -0.00000
 Mulliken charges with hydrogens summed into heavy atoms:
               1
     1  C    0.253461
     2  C    0.287433
     3  O   -0.449572
     4  C    0.049190
    11  C    0.700127
    12  O   -0.445776
    13  O   -0.394863
 APT charges:
               1
     1  C   -0.326837
     2  C   -0.570418
     3  O   -0.191930
     4  C   -1.203407
     5  H    0.437705
     6  H    0.363096
     7  H    0.584944
     8  H    0.280048
     9  H    0.495339
    10  H    0.420589
    11  C   -0.238250
    12  O   -0.337188
    13  O    0.286309
 Sum of APT charges =  -0.00000
 APT charges with hydrogens summed into heavy atoms:
               1
     1  C    0.093752
     2  C    0.230383
     3  O   -0.191930
     4  C    0.156924
    11  C   -0.238250
    12  O   -0.337188
    13  O    0.286309
 Electronic spatial extent (au):  <R**2>=            857.5733
 Charge=              0.0000 electrons
 Dipole moment (field-independent basis, Debye):
    X=             -1.2145    Y=              5.1428    Z=             -1.6093  Tot=              5.5239
 Quadrupole moment (field-independent basis, Debye-Ang):
   XX=            -42.9826   YY=            -39.6676   ZZ=            -38.7803
   XY=              3.2447   XZ=             -2.0561   YZ=              0.7033
 Traceless Quadrupole moment (field-independent basis, Debye-Ang):
   XX=             -2.5057   YY=              0.8092   ZZ=              1.6965
   XY=              3.2447   XZ=             -2.0561   YZ=              0.7033
 Octapole moment (field-independent basis, Debye-Ang**2):
  XXX=            -94.0083  YYY=            -54.7321  ZZZ=             -4.3020  XYY=            -30.2093
  XXY=            -17.5159  XXZ=             -5.1702  XZZ=            -29.9182  YZZ=            -22.0238
  YYZ=             -6.2353  XYZ=              1.9854
 Hexadecapole moment (field-independent basis, Debye-Ang**3):
 XXXX=           -343.6110 YYYY=           -649.0384 ZZZZ=            -84.6544 XXXY=            -61.2717
 XXXZ=            -26.2847 YYYX=            -51.0987 YYYZ=             31.3998 ZZZX=            -21.7327
 ZZZY=             28.1620 XXYY=           -161.2240 XXZZ=            -70.4724 YYZZ=           -123.4995
 XXYZ=             10.3910 YYXZ=            -11.7683 ZZXY=            -23.7481
 N-N= 3.198142434446D+02 E-N=-1.533146863133D+03  KE= 3.791815343901D+02
  Exact polarizability:   0.000   0.000   0.000   0.000   0.000   0.000
 Approx polarizability:  52.067  -3.753  64.243   2.873  -6.519  47.539
   1 Symmetry operations used in ECPInt.
 ECPInt:  NShTT=    1081 NPrTT=    5922 LenC2=    1069 LenP2D=    4339.
 LDataN:  DoStor=T MaxTD1= 6 Len=  172
 Calling FoFJK, ICntrl=    100147 FMM=F ISym2X=0 I1Cent= 0 IOpClX= 0 NMat=1 NMatS=1 NMatT=0.
 -------------------------------------------------------------------
 Center     Atomic                   Forces (Hartrees/Bohr)
 Number     Number              X              Y              Z
 -------------------------------------------------------------------
      1        6           0.000001561    0.000002551   -0.000003964
      2        6          -0.000003301    0.000004637    0.000000175
      3        8           0.000000021   -0.000001800    0.000000373
      4        6           0.000000321    0.000001248    0.000000610
      5        1           0.000001085    0.000000084    0.000001003
      6        1           0.000000964   -0.000001570   -0.000001942
      7        1          -0.000001841   -0.000000374    0.000000441
      8        1           0.000000279    0.000000004   -0.000001040
      9        1           0.000000629   -0.000000673    0.000000754
     10        1          -0.000000499    0.000000053    0.000002903
     11        6          -0.000001484    0.000005937   -0.000002251
     12        8           0.000000294   -0.000003180    0.000000622
     13        8           0.000001970   -0.000006918    0.000002316
 -------------------------------------------------------------------
 Cartesian Forces:  Max     0.000006918 RMS     0.000002248
 FormGI is forming the generalized inverse of G from B-inverse, IUseBI=4.

 GradGradGradGradGradGradGradGradGradGradGradGradGradGradGradGradGradGrad
 Berny optimization.
 Internal  Forces:  Max     0.000007578 RMS     0.000001273
 Search for a local minimum.
 Step number   1 out of a maximum of   74
 All quantities printed in internal units (Hartrees-Bohrs-Radians)
 Mixed Optimization -- En-DIIS/RFO-DIIS
 Second derivative matrix not updated -- analytic derivatives used.
 ITU=  0
     Eigenvalues ---    0.00214   0.00248   0.01047   0.03694   0.04396
     Eigenvalues ---    0.04575   0.04917   0.05078   0.05424   0.07216
     Eigenvalues ---    0.08783   0.09556   0.10728   0.12126   0.12953
     Eigenvalues ---    0.15236   0.16486   0.21053   0.23216   0.24374
     Eigenvalues ---    0.28223   0.29057   0.32081   0.33747   0.34033
     Eigenvalues ---    0.34690   0.34897   0.35261   0.35510   0.37930
     Eigenvalues ---    0.39060   0.40795   0.99101
 RFO step:  Lambda= 0.00000000D+00 EMin= 2.13981471D-03
 Linear search not attempted -- first point.
 Iteration  1 RMS(Cart)=  0.00000541 RMS(Int)=  0.00000000
 Iteration  2 RMS(Cart)=  0.00000000 RMS(Int)=  0.00000000
 Variable       Old X    -DE/DX   Delta X   Delta X   Delta X     New X
                                 (Linear)    (Quad)   (Total)
    R1        2.89050   0.00000   0.00000   0.00000   0.00000   2.89050
    R2        2.71025   0.00000   0.00000   0.00001   0.00001   2.71026
    R3        2.85397   0.00000   0.00000   0.00000   0.00000   2.85397
    R4        2.07168  -0.00000   0.00000  -0.00001  -0.00001   2.07167
    R5        2.06077  -0.00000   0.00000  -0.00000  -0.00000   2.06077
    R6        2.07084  -0.00000   0.00000  -0.00001  -0.00001   2.07083
    R7        2.69161   0.00000   0.00000   0.00001   0.00001   2.69162
    R8        2.55750   0.00000   0.00000  -0.00000  -0.00000   2.55750
    R9        2.06261  -0.00000   0.00000  -0.00001  -0.00001   2.06261
   R10        2.06504  -0.00000   0.00000  -0.00000  -0.00000   2.06503
   R11        2.06682  -0.00000   0.00000  -0.00000  -0.00000   2.06682
   R12        2.56185   0.00000   0.00000  -0.00000  -0.00000   2.56185
   R13        2.24994   0.00001   0.00000   0.00001   0.00001   2.24995
    A1        1.77747  -0.00000   0.00000  -0.00000  -0.00000   1.77747
    A2        2.01297  -0.00000   0.00000  -0.00000  -0.00000   2.01296
    A3        1.93148   0.00000   0.00000   0.00000   0.00000   1.93149
    A4        1.92306   0.00000   0.00000   0.00000   0.00000   1.92306
    A5        1.87645  -0.00000   0.00000  -0.00000  -0.00000   1.87645
    A6        1.93237  -0.00000   0.00000   0.00000   0.00000   1.93237
    A7        1.98355  -0.00000   0.00000  -0.00000  -0.00000   1.98355
    A8        1.95237   0.00000   0.00000   0.00000   0.00000   1.95238
    A9        1.80318  -0.00000   0.00000  -0.00000  -0.00000   1.80318
   A10        1.91067   0.00000   0.00000   0.00000   0.00000   1.91068
   A11        1.90364   0.00000   0.00000   0.00000   0.00000   1.90364
   A12        1.90628  -0.00000   0.00000  -0.00001  -0.00001   1.90627
   A13        1.91856   0.00000   0.00000   0.00000   0.00000   1.91856
   A14        1.93101  -0.00000   0.00000  -0.00000  -0.00000   1.93101
   A15        1.92698   0.00000   0.00000   0.00000   0.00000   1.92698
   A16        1.92246   0.00000   0.00000   0.00000   0.00000   1.92246
   A17        1.89473  -0.00000   0.00000  -0.00000  -0.00000   1.89473
   A18        1.88957  -0.00000   0.00000  -0.00000  -0.00000   1.88957
   A19        1.89822  -0.00000   0.00000   0.00000   0.00000   1.89822
   A20        1.92248  -0.00000   0.00000   0.00000   0.00000   1.92248
   A21        2.18289   0.00000   0.00000  -0.00000  -0.00000   2.18289
   A22        2.17782   0.00000   0.00000  -0.00000  -0.00000   2.17782
   A23        1.90784   0.00000   0.00000  -0.00000  -0.00000   1.90784
    D1       -2.45718   0.00000   0.00000   0.00001   0.00001  -2.45717
    D2        1.65133   0.00000   0.00000  -0.00000  -0.00000   1.65133
    D3       -0.39689   0.00000   0.00000   0.00001   0.00001  -0.39689
    D4        1.74393  -0.00000   0.00000   0.00001   0.00001   1.74394
    D5       -0.43075  -0.00000   0.00000  -0.00000  -0.00000  -0.43075
    D6       -2.47897   0.00000   0.00000   0.00001   0.00001  -2.47896
    D7       -0.46646  -0.00000   0.00000   0.00000   0.00000  -0.46646
    D8       -2.64114  -0.00000   0.00000  -0.00001  -0.00001  -2.64115
    D9        1.59383   0.00000   0.00000   0.00000   0.00000   1.59383
   D10        0.33537   0.00000   0.00000  -0.00001  -0.00001   0.33537
   D11        2.48003  -0.00000   0.00000  -0.00001  -0.00001   2.48002
   D12       -1.69579   0.00000   0.00000  -0.00001  -0.00001  -1.69579
   D13        3.07085  -0.00000   0.00000  -0.00001  -0.00001   3.07083
   D14        0.97294  -0.00000   0.00000  -0.00001  -0.00001   0.97293
   D15       -1.12379  -0.00000   0.00000  -0.00001  -0.00001  -1.12380
   D16        1.07110   0.00000   0.00000  -0.00001  -0.00001   1.07108
   D17       -1.02681   0.00000   0.00000  -0.00001  -0.00001  -1.02682
   D18       -3.12354   0.00000   0.00000  -0.00001  -0.00001  -3.12355
   D19       -1.00239  -0.00000   0.00000  -0.00001  -0.00001  -1.00240
   D20       -3.10030   0.00000   0.00000  -0.00001  -0.00001  -3.10031
   D21        1.08615  -0.00000   0.00000  -0.00001  -0.00001   1.08614
   D22        0.33960   0.00000   0.00000  -0.00000  -0.00000   0.33960
   D23        2.45487  -0.00000   0.00000  -0.00000  -0.00000   2.45487
   D24       -1.74074  -0.00000   0.00000  -0.00000  -0.00000  -1.74074
   D25       -0.14093   0.00000   0.00000   0.00001   0.00001  -0.14093
   D26        3.00054   0.00000   0.00000   0.00001   0.00001   3.00054
   D27       -0.14130  -0.00000   0.00000  -0.00000  -0.00000  -0.14130
   D28        3.00041  -0.00000   0.00000  -0.00000  -0.00000   3.00041
         Item               Value     Threshold  Converged?
 Maximum Force            0.000008     0.000015     YES
 RMS     Force            0.000001     0.000010     YES
 Maximum Displacement     0.000019     0.000060     YES
 RMS     Displacement     0.000005     0.000040     YES
 Predicted change in Energy=-1.101730D-10
 Optimization completed.
    -- Stationary point found.
                           ----------------------------
                           !   Optimized Parameters   !
                           ! (Angstroms and Degrees)  !
 --------------------------                            --------------------------
 ! Name  Definition              Value          Derivative Info.                !
 --------------------------------------------------------------------------------
 ! R1    R(1,2)                  1.5296         -DE/DX =    0.0                 !
 ! R2    R(1,3)                  1.4342         -DE/DX =    0.0                 !
 ! R3    R(1,4)                  1.5103         -DE/DX =    0.0                 !
 ! R4    R(1,10)                 1.0963         -DE/DX =    0.0                 !
 ! R5    R(2,5)                  1.0905         -DE/DX =    0.0                 !
 ! R6    R(2,6)                  1.0958         -DE/DX =    0.0                 !
 ! R7    R(2,12)                 1.4243         -DE/DX =    0.0                 !
 ! R8    R(3,11)                 1.3534         -DE/DX =    0.0                 !
 ! R9    R(4,7)                  1.0915         -DE/DX =    0.0                 !
 ! R10   R(4,8)                  1.0928         -DE/DX =    0.0                 !
 ! R11   R(4,9)                  1.0937         -DE/DX =    0.0                 !
 ! R12   R(11,12)                1.3557         -DE/DX =    0.0                 !
 ! R13   R(11,13)                1.1906         -DE/DX =    0.0                 !
 ! A1    A(2,1,3)              101.8414         -DE/DX =    0.0                 !
 ! A2    A(2,1,4)              115.3344         -DE/DX =    0.0                 !
 ! A3    A(2,1,10)             110.6658         -DE/DX =    0.0                 !
 ! A4    A(3,1,4)              110.1829         -DE/DX =    0.0                 !
 ! A5    A(3,1,10)             107.5128         -DE/DX =    0.0                 !
 ! A6    A(4,1,10)             110.7164         -DE/DX =    0.0                 !
 ! A7    A(1,2,5)              113.6491         -DE/DX =    0.0                 !
 ! A8    A(1,2,6)              111.8628         -DE/DX =    0.0                 !
 ! A9    A(1,2,12)             103.3147         -DE/DX =    0.0                 !
 ! A10   A(5,2,6)              109.4734         -DE/DX =    0.0                 !
 ! A11   A(5,2,12)             109.0705         -DE/DX =    0.0                 !
 ! A12   A(6,2,12)             109.2215         -DE/DX =    0.0                 !
 ! A13   A(1,3,11)             109.9251         -DE/DX =    0.0                 !
 ! A14   A(1,4,7)              110.6387         -DE/DX =    0.0                 !
 ! A15   A(1,4,8)              110.4076         -DE/DX =    0.0                 !
 ! A16   A(1,4,9)              110.1488         -DE/DX =    0.0                 !
 ! A17   A(7,4,8)              108.5603         -DE/DX =    0.0                 !
 ! A18   A(7,4,9)              108.2646         -DE/DX =    0.0                 !
 ! A19   A(8,4,9)              108.76           -DE/DX =    0.0                 !
 ! A20   A(3,11,12)            110.1499         -DE/DX =    0.0                 !
 ! A21   A(3,11,13)            125.0705         -DE/DX =    0.0                 !
 ! A22   A(12,11,13)           124.7796         -DE/DX =    0.0                 !
 ! A23   A(2,12,11)            109.3113         -DE/DX =    0.0                 !
 ! D1    D(3,1,2,5)           -140.7858         -DE/DX =    0.0                 !
 ! D2    D(3,1,2,6)             94.6141         -DE/DX =    0.0                 !
 ! D3    D(3,1,2,12)           -22.7402         -DE/DX =    0.0                 !
 ! D4    D(4,1,2,5)             99.92           -DE/DX =    0.0                 !
 ! D5    D(4,1,2,6)            -24.68           -DE/DX =    0.0                 !
 ! D6    D(4,1,2,12)          -142.0344         -DE/DX =    0.0                 !
 ! D7    D(10,1,2,5)           -26.7261         -DE/DX =    0.0                 !
 ! D8    D(10,1,2,6)          -151.3262         -DE/DX =    0.0                 !
 ! D9    D(10,1,2,12)           91.3195         -DE/DX =    0.0                 !
 ! D10   D(2,1,3,11)            19.2155         -DE/DX =    0.0                 !
 ! D11   D(4,1,3,11)           142.0953         -DE/DX =    0.0                 !
 ! D12   D(10,1,3,11)          -97.1614         -DE/DX =    0.0                 !
 ! D13   D(2,1,4,7)            175.9466         -DE/DX =    0.0                 !
 ! D14   D(2,1,4,8)             55.7453         -DE/DX =    0.0                 !
 ! D15   D(2,1,4,9)            -64.3884         -DE/DX =    0.0                 !
 ! D16   D(3,1,4,7)             61.3693         -DE/DX =    0.0                 !
 ! D17   D(3,1,4,8)            -58.832          -DE/DX =    0.0                 !
 ! D18   D(3,1,4,9)           -178.9657         -DE/DX =    0.0                 !
 ! D19   D(10,1,4,7)           -57.433          -DE/DX =    0.0                 !
 ! D20   D(10,1,4,8)          -177.6342         -DE/DX =    0.0                 !
 ! D21   D(10,1,4,9)            62.232          -DE/DX =    0.0                 !
 ! D22   D(1,2,12,11)           19.4577         -DE/DX =    0.0                 !
 ! D23   D(5,2,12,11)          140.6537         -DE/DX =    0.0                 !
 ! D24   D(6,2,12,11)          -99.7369         -DE/DX =    0.0                 !
 ! D25   D(1,3,11,12)           -8.0748         -DE/DX =    0.0                 !
 ! D26   D(1,3,11,13)          171.9181         -DE/DX =    0.0                 !
 ! D27   D(3,11,12,2)           -8.096          -DE/DX =    0.0                 !
 ! D28   D(13,11,12,2)         171.911          -DE/DX =    0.0                 !
 --------------------------------------------------------------------------------
 GradGradGradGradGradGradGradGradGradGradGradGradGradGradGradGradGradGrad

                          Input orientation:                          
 ---------------------------------------------------------------------
 Center     Atomic      Atomic             Coordinates (Angstroms)
 Number     Number       Type             X           Y           Z
 ---------------------------------------------------------------------
      1          6           0        1.005343    1.503000   -0.472781
      2          6           0       -0.464061    1.096315   -0.349937
      3          8           0        1.666818    0.423408    0.200915
      4          6           0        1.367563    2.819668    0.172243
      5          1           0       -1.051547    1.303331   -1.245048
      6          1           0       -0.944899    1.561064    0.518204
      7          1           0        2.441754    2.999944    0.101811
      8          1           0        1.083616    2.817902    1.227477
      9          1           0        0.848512    3.640788   -0.330307
     10          1           0        1.325847    1.483515   -1.520988
     11          6           0        0.843998   -0.648711    0.272614
     12          8           0       -0.398980   -0.312634   -0.151539
     13          8           0        1.162414   -1.731257    0.652445
 ---------------------------------------------------------------------
                    Distance matrix (angstroms):
                    1          2          3          4          5
     1  C    0.000000
     2  C    1.529585   0.000000
     3  O    1.434202   2.301497   0.000000
     4  C    1.510256   2.568553   2.415044   0.000000
     5  H    2.206142   1.090513   3.202278   3.187489   0.000000
     6  H    2.188348   1.095840   2.866356   2.655420   1.785177
     7  H    2.152736   3.503090   2.692375   1.091488   4.110435
     8  H    2.150807   2.801321   2.669748   1.092771   3.600865
     9  H    2.148263   2.863141   3.362046   1.093713   3.148123
    10  H    1.096285   2.173719   2.050619   2.157331   2.400127
    11  C    2.282872   2.267974   1.353371   3.509109   3.115583
    12  O    2.317724   1.424337   2.221149   3.610654   2.057413
    13  O    3.428006   3.412529   2.258514   4.580786   4.208423
                    6          7          8          9         10
     6  H    0.000000
     7  H    3.703131   0.000000
     8  H    2.489495   1.773359   0.000000
     9  H    2.874290   1.770827   1.777387   0.000000
    10  H    3.052967   2.485615   3.064853   2.509860   0.000000
    11  C    2.853695   3.986813   3.603691   4.331667   2.827645
    12  O    2.063329   4.371170   3.728275   4.149426   2.841931
    13  O    3.911287   4.931954   4.586035   5.470211   3.883977
                   11         12         13
    11  C    0.000000
    12  O    1.355672   0.000000
    13  O    1.190616   2.257617   0.000000
 Symmetry turned off by external request.
 Stoichiometry    C4H6O3
 Framework group  C1[X(C4H6O3)]
 Deg. of freedom    33
 Full point group                 C1      NOp   1
 Rotational constants (GHZ):           6.0189780           2.2445780           1.7399640
 1\1\GINC-NODE5063\FOpt\RCAM-B3LYP\Gen\C4H6O3\X1711A05\22-Aug-2019\0\\#
  opt=(calcfc,tight) freq cam-b3lyp/gen nosymm pseudo=read scf=xqc\\PC_
 opt_freq_6_31G\\0,1\C,1.005343,1.503,-0.472781\C,-0.464061,1.096315,-0
 .349937\O,1.666818,0.423408,0.200915\C,1.367563,2.819668,0.172243\H,-1
 .051547,1.303331,-1.245048\H,-0.944899,1.561064,0.518204\H,2.441754,2.
 999944,0.101811\H,1.083616,2.817902,1.227477\H,0.848512,3.640788,-0.33
 0307\H,1.325847,1.483515,-1.520988\C,0.843998,-0.648711,0.272614\O,-0.
 39898,-0.312634,-0.151539\O,1.162414,-1.731257,0.652445\\Version=ES64L
 -G16RevA.03\HF=-381.5635546\RMSD=3.541e-09\RMSF=2.248e-06\Dipole=-0.47
 78268,2.02334,-0.6331629\Polar=0.,0.,0.,0.,0.,0.\Quadrupole=-1.8629484
 ,0.6016149,1.2613335,2.4123621,-1.528646,0.5228702\PG=C01 [X(C4H6O3)]\
 \@


 OLD AGE AND TREACHERY WILL ALWAYS PREVAIL OVER YOUTH AND SKILL.
 Job cpu time:       0 days  1 hours  6 minutes 46.6 seconds.
 Elapsed time:       0 days  0 hours  1 minutes  3.7 seconds.
 File lengths (MBytes):  RWF=     31 Int=      0 D2E=      0 Chk=      3 Scr=      1
 Normal termination of Gaussian 16 at Thu Aug 22 12:00:10 2019.
 Link1:  Proceeding to internal job step number  2.
 ----------------------------------------------------------------------
 #N Geom=AllCheck Guess=TCheck SCRF=Check GenChk RCAM-B3LYP/ChkBas Freq
 ----------------------------------------------------------------------
 1/7=10,10=4,29=7,30=1,38=1,40=1/1,3;
 2/12=2,15=1,40=1/2;
 3/5=7,6=2,11=2,14=-4,16=1,17=8,25=1,30=1,67=1,70=2,71=2,74=-40,82=7,116=1,140=1/1,2,3;
 4/5=101/1;
 5/5=2,8=3,13=1,38=6,98=1/2,8;
 8/6=4,10=90,11=11/1;
 11/6=1,8=1,9=11,15=111,16=1,31=1/1,2,10;
 10/6=1,31=1/2;
 6/7=2,8=2,9=2,10=2,28=1/1;
 7/8=1,10=1,25=1,30=1/1,2,3,16;
 1/7=10,10=4,30=1/3;
 99//99;
 Structure from the checkpoint file:  "PC_opt_freq_6_31G.chk"
 -----------------
 PC_opt_freq_6_31G
 -----------------
 Charge =  0 Multiplicity = 1
 Redundant internal coordinates found in file.  (old form).
 C,0,1.005343,1.503,-0.472781
 C,0,-0.464061,1.096315,-0.349937
 O,0,1.666818,0.423408,0.200915
 C,0,1.367563,2.819668,0.172243
 H,0,-1.051547,1.303331,-1.245048
 H,0,-0.944899,1.561064,0.518204
 H,0,2.441754,2.999944,0.101811
 H,0,1.083616,2.817902,1.227477
 H,0,0.848512,3.640788,-0.330307
 H,0,1.325847,1.483515,-1.520988
 C,0,0.843998,-0.648711,0.272614
 O,0,-0.39898,-0.312634,-0.151539
 O,0,1.162414,-1.731257,0.652445
 Recover connectivity data from disk.

 GradGradGradGradGradGradGradGradGradGradGradGradGradGradGradGradGradGrad
 Berny optimization.
 Initialization pass.
                           ----------------------------
                           !    Initial Parameters    !
                           ! (Angstroms and Degrees)  !
 --------------------------                            --------------------------
 ! Name  Definition              Value          Derivative Info.                !
 --------------------------------------------------------------------------------
 ! R1    R(1,2)                  1.5296         calculate D2E/DX2 analytically  !
 ! R2    R(1,3)                  1.4342         calculate D2E/DX2 analytically  !
 ! R3    R(1,4)                  1.5103         calculate D2E/DX2 analytically  !
 ! R4    R(1,10)                 1.0963         calculate D2E/DX2 analytically  !
 ! R5    R(2,5)                  1.0905         calculate D2E/DX2 analytically  !
 ! R6    R(2,6)                  1.0958         calculate D2E/DX2 analytically  !
 ! R7    R(2,12)                 1.4243         calculate D2E/DX2 analytically  !
 ! R8    R(3,11)                 1.3534         calculate D2E/DX2 analytically  !
 ! R9    R(4,7)                  1.0915         calculate D2E/DX2 analytically  !
 ! R10   R(4,8)                  1.0928         calculate D2E/DX2 analytically  !
 ! R11   R(4,9)                  1.0937         calculate D2E/DX2 analytically  !
 ! R12   R(11,12)                1.3557         calculate D2E/DX2 analytically  !
 ! R13   R(11,13)                1.1906         calculate D2E/DX2 analytically  !
 ! A1    A(2,1,3)              101.8414         calculate D2E/DX2 analytically  !
 ! A2    A(2,1,4)              115.3344         calculate D2E/DX2 analytically  !
 ! A3    A(2,1,10)             110.6658         calculate D2E/DX2 analytically  !
 ! A4    A(3,1,4)              110.1829         calculate D2E/DX2 analytically  !
 ! A5    A(3,1,10)             107.5128         calculate D2E/DX2 analytically  !
 ! A6    A(4,1,10)             110.7164         calculate D2E/DX2 analytically  !
 ! A7    A(1,2,5)              113.6491         calculate D2E/DX2 analytically  !
 ! A8    A(1,2,6)              111.8628         calculate D2E/DX2 analytically  !
 ! A9    A(1,2,12)             103.3147         calculate D2E/DX2 analytically  !
 ! A10   A(5,2,6)              109.4734         calculate D2E/DX2 analytically  !
 ! A11   A(5,2,12)             109.0705         calculate D2E/DX2 analytically  !
 ! A12   A(6,2,12)             109.2215         calculate D2E/DX2 analytically  !
 ! A13   A(1,3,11)             109.9251         calculate D2E/DX2 analytically  !
 ! A14   A(1,4,7)              110.6387         calculate D2E/DX2 analytically  !
 ! A15   A(1,4,8)              110.4076         calculate D2E/DX2 analytically  !
 ! A16   A(1,4,9)              110.1488         calculate D2E/DX2 analytically  !
 ! A17   A(7,4,8)              108.5603         calculate D2E/DX2 analytically  !
 ! A18   A(7,4,9)              108.2646         calculate D2E/DX2 analytically  !
 ! A19   A(8,4,9)              108.76           calculate D2E/DX2 analytically  !
 ! A20   A(3,11,12)            110.1499         calculate D2E/DX2 analytically  !
 ! A21   A(3,11,13)            125.0705         calculate D2E/DX2 analytically  !
 ! A22   A(12,11,13)           124.7796         calculate D2E/DX2 analytically  !
 ! A23   A(2,12,11)            109.3113         calculate D2E/DX2 analytically  !
 ! D1    D(3,1,2,5)           -140.7858         calculate D2E/DX2 analytically  !
 ! D2    D(3,1,2,6)             94.6141         calculate D2E/DX2 analytically  !
 ! D3    D(3,1,2,12)           -22.7402         calculate D2E/DX2 analytically  !
 ! D4    D(4,1,2,5)             99.92           calculate D2E/DX2 analytically  !
 ! D5    D(4,1,2,6)            -24.68           calculate D2E/DX2 analytically  !
 ! D6    D(4,1,2,12)          -142.0344         calculate D2E/DX2 analytically  !
 ! D7    D(10,1,2,5)           -26.7261         calculate D2E/DX2 analytically  !
 ! D8    D(10,1,2,6)          -151.3262         calculate D2E/DX2 analytically  !
 ! D9    D(10,1,2,12)           91.3195         calculate D2E/DX2 analytically  !
 ! D10   D(2,1,3,11)            19.2155         calculate D2E/DX2 analytically  !
 ! D11   D(4,1,3,11)           142.0953         calculate D2E/DX2 analytically  !
 ! D12   D(10,1,3,11)          -97.1614         calculate D2E/DX2 analytically  !
 ! D13   D(2,1,4,7)            175.9466         calculate D2E/DX2 analytically  !
 ! D14   D(2,1,4,8)             55.7453         calculate D2E/DX2 analytically  !
 ! D15   D(2,1,4,9)            -64.3884         calculate D2E/DX2 analytically  !
 ! D16   D(3,1,4,7)             61.3693         calculate D2E/DX2 analytically  !
 ! D17   D(3,1,4,8)            -58.832          calculate D2E/DX2 analytically  !
 ! D18   D(3,1,4,9)           -178.9657         calculate D2E/DX2 analytically  !
 ! D19   D(10,1,4,7)           -57.433          calculate D2E/DX2 analytically  !
 ! D20   D(10,1,4,8)          -177.6342         calculate D2E/DX2 analytically  !
 ! D21   D(10,1,4,9)            62.232          calculate D2E/DX2 analytically  !
 ! D22   D(1,2,12,11)           19.4577         calculate D2E/DX2 analytically  !
 ! D23   D(5,2,12,11)          140.6537         calculate D2E/DX2 analytically  !
 ! D24   D(6,2,12,11)          -99.7369         calculate D2E/DX2 analytically  !
 ! D25   D(1,3,11,12)           -8.0748         calculate D2E/DX2 analytically  !
 ! D26   D(1,3,11,13)          171.9181         calculate D2E/DX2 analytically  !
 ! D27   D(3,11,12,2)           -8.096          calculate D2E/DX2 analytically  !
 ! D28   D(13,11,12,2)         171.911          calculate D2E/DX2 analytically  !
 --------------------------------------------------------------------------------
 Trust Radius=3.00D-01 FncErr=1.00D-07 GrdErr=1.00D-07 EigMax=2.50D+02 EigMin=1.00D-04
 Number of steps in this run=      2 maximum allowed number of steps=      2.
 GradGradGradGradGradGradGradGradGradGradGradGradGradGradGradGradGradGrad

                          Input orientation:                          
 ---------------------------------------------------------------------
 Center     Atomic      Atomic             Coordinates (Angstroms)
 Number     Number       Type             X           Y           Z
 ---------------------------------------------------------------------
      1          6           0        1.005343    1.503000   -0.472781
      2          6           0       -0.464061    1.096315   -0.349937
      3          8           0        1.666818    0.423408    0.200915
      4          6           0        1.367563    2.819668    0.172243
      5          1           0       -1.051547    1.303331   -1.245048
      6          1           0       -0.944899    1.561064    0.518204
      7          1           0        2.441754    2.999944    0.101811
      8          1           0        1.083616    2.817902    1.227477
      9          1           0        0.848512    3.640788   -0.330307
     10          1           0        1.325847    1.483515   -1.520988
     11          6           0        0.843998   -0.648711    0.272614
     12          8           0       -0.398980   -0.312634   -0.151539
     13          8           0        1.162414   -1.731257    0.652445
 ---------------------------------------------------------------------
                    Distance matrix (angstroms):
                    1          2          3          4          5
     1  C    0.000000
     2  C    1.529585   0.000000
     3  O    1.434202   2.301497   0.000000
     4  C    1.510256   2.568553   2.415044   0.000000
     5  H    2.206142   1.090513   3.202278   3.187489   0.000000
     6  H    2.188348   1.095840   2.866356   2.655420   1.785177
     7  H    2.152736   3.503090   2.692375   1.091488   4.110435
     8  H    2.150807   2.801321   2.669748   1.092771   3.600865
     9  H    2.148263   2.863141   3.362046   1.093713   3.148123
    10  H    1.096285   2.173719   2.050619   2.157331   2.400127
    11  C    2.282872   2.267974   1.353371   3.509109   3.115583
    12  O    2.317724   1.424337   2.221149   3.610654   2.057413
    13  O    3.428006   3.412529   2.258514   4.580786   4.208423
                    6          7          8          9         10
     6  H    0.000000
     7  H    3.703131   0.000000
     8  H    2.489495   1.773359   0.000000
     9  H    2.874290   1.770827   1.777387   0.000000
    10  H    3.052967   2.485615   3.064853   2.509860   0.000000
    11  C    2.853695   3.986813   3.603691   4.331667   2.827645
    12  O    2.063329   4.371170   3.728275   4.149426   2.841931
    13  O    3.911287   4.931954   4.586035   5.470211   3.883977
                   11         12         13
    11  C    0.000000
    12  O    1.355672   0.000000
    13  O    1.190616   2.257617   0.000000
 Symmetry turned off by external request.
 Stoichiometry    C4H6O3
 Framework group  C1[X(C4H6O3)]
 Deg. of freedom    33
 Full point group                 C1      NOp   1
 Rotational constants (GHZ):           6.0189780           2.2445780           1.7399640
 Basis read from chk: "PC_opt_freq_6_31G.chk" (5D, 7F)
 Pseudo-potential data read from chk file.
   128 basis functions,   238 primitive gaussians,   135 cartesian basis functions
    27 alpha electrons       27 beta electrons
       nuclear repulsion energy       319.8142434446 Hartrees.
 NAtoms=   13 NActive=   13 NUniq=   13 SFac= 1.00D+00 NAtFMM=   60 NAOKFM=F Big=F
 Integral buffers will be    131072 words long.
 Raffenetti 2 integral format.
 Two-electron integral symmetry is turned off.
 One-electron integrals computed using PRISM.
   1 Symmetry operations used in ECPInt.
 ECPInt:  NShTT=    1081 NPrTT=    5922 LenC2=    1069 LenP2D=    4339.
 LDataN:  DoStor=T MaxTD1= 4 Len=   56
 NBasis=   128 RedAO= T EigKep=  3.48D-03  NBF=   128
 NBsUse=   128 1.00D-06 EigRej= -1.00D+00 NBFU=   128
 Initial guess from the checkpoint file:  "PC_opt_freq_6_31G.chk"
 B after Tr=     0.000000    0.000000    0.000000
         Rot=    1.000000    0.000000    0.000000    0.000000 Ang=   0.00 deg.
 Requested convergence on RMS density matrix=1.00D-08 within  32 cycles.
 Requested convergence on MAX density matrix=1.00D-06.
 Requested convergence on             energy=1.00D-06.
 No special actions if energy rises.
 SCF Done:  E(RCAM-B3LYP) =  -381.563554576     A.U. after    1 cycles
            NFock=  1  Conv=0.16D-08     -V/T= 2.0063
 QCSCF skips out because SCF is already converged.
 DoSCS=F DFT=T ScalE2(SS,OS)=  1.000000  1.000000
 Range of M.O.s used for correlation:     1   128
 NBasis=   128 NAE=    27 NBE=    27 NFC=     0 NFV=     0
 NROrb=    128 NOA=    27 NOB=    27 NVA=   101 NVB=   101
   1 Symmetry operations used in ECPInt.
 ECPInt:  NShTT=    1081 NPrTT=    5922 LenC2=    1069 LenP2D=    4339.
 LDataN:  DoStor=T MaxTD1= 5 Len=  102
 Symmetrizing basis deriv contribution to polar:
 IMax=3 JMax=2 DiffMx= 0.00D+00
 G2DrvN: will do    14 centers at a time, making    1 passes.
 Calling FoFCou, ICntrl=  3107 FMM=F I1Cent=   0 AccDes= 0.00D+00.
 End of G2Drv F.D. properties file   721 does not exist.
 End of G2Drv F.D. properties file   722 does not exist.
 End of G2Drv F.D. properties file   788 does not exist.
          IDoAtm=1111111111111
          Differentiating once with respect to electric field.
                with respect to dipole field.
          Differentiating once with respect to nuclear coordinates.
 Keep R1 ints in memory in canonical form, NReq=129309181.
          There are    42 degrees of freedom in the 1st order CPHF.  IDoFFX=6 NUNeed=     3.
     39 vectors produced by pass  0 Test12= 6.49D-15 2.38D-09 XBig12= 2.35D+01 2.33D+00.
 AX will form    39 AO Fock derivatives at one time.
     39 vectors produced by pass  1 Test12= 6.49D-15 2.38D-09 XBig12= 2.75D+00 4.97D-01.
     39 vectors produced by pass  2 Test12= 6.49D-15 2.38D-09 XBig12= 5.57D-02 4.61D-02.
     39 vectors produced by pass  3 Test12= 6.49D-15 2.38D-09 XBig12= 5.68D-04 5.16D-03.
     39 vectors produced by pass  4 Test12= 6.49D-15 2.38D-09 XBig12= 2.68D-06 2.23D-04.
     39 vectors produced by pass  5 Test12= 6.49D-15 2.38D-09 XBig12= 8.44D-09 1.19D-05.
     18 vectors produced by pass  6 Test12= 6.49D-15 2.38D-09 XBig12= 2.36D-11 6.62D-07.
      3 vectors produced by pass  7 Test12= 6.49D-15 2.38D-09 XBig12= 6.28D-14 3.03D-08.
 InvSVY:  IOpt=1 It=  1 EMax= 1.81D-15
 Solved reduced A of dimension   255 with    42 vectors.
 Isotropic polarizability for W=    0.000000       46.86 Bohr**3.
 End of Minotr F.D. properties file   721 does not exist.
 End of Minotr F.D. properties file   722 does not exist.
 End of Minotr F.D. properties file   788 does not exist.

 **********************************************************************

            Population analysis using the SCF density.

 **********************************************************************

 Alpha  occ. eigenvalues --  -19.27327 -19.27169 -19.20338 -10.43333 -10.34428
 Alpha  occ. eigenvalues --  -10.33755 -10.27440  -1.24320  -1.12786  -1.11733
 Alpha  occ. eigenvalues --   -0.89621  -0.80401  -0.72582  -0.68425  -0.62761
 Alpha  occ. eigenvalues --   -0.58636  -0.56110  -0.52012  -0.51000  -0.50708
 Alpha  occ. eigenvalues --   -0.48583  -0.46669  -0.44256  -0.42842  -0.37388
 Alpha  occ. eigenvalues --   -0.36874  -0.35453
 Alpha virt. eigenvalues --    0.09646   0.12398   0.13184   0.15961   0.17559
 Alpha virt. eigenvalues --    0.19706   0.19810   0.21539   0.23181   0.26177
 Alpha virt. eigenvalues --    0.28717   0.31780   0.41954   0.43833   0.53008
 Alpha virt. eigenvalues --    0.54522   0.56449   0.59062   0.60471   0.62274
 Alpha virt. eigenvalues --    0.62476   0.67144   0.69014   0.71301   0.72306
 Alpha virt. eigenvalues --    0.76084   0.82992   0.85747   0.90301   0.91645
 Alpha virt. eigenvalues --    0.92328   0.94204   0.94311   0.98479   1.00355
 Alpha virt. eigenvalues --    1.07169   1.09951   1.11440   1.13232   1.15837
 Alpha virt. eigenvalues --    1.18372   1.21069   1.28965   1.33232   1.41648
 Alpha virt. eigenvalues --    1.46498   1.51151   1.55565   1.56920   1.63447
 Alpha virt. eigenvalues --    1.66305   1.71580   1.80426   1.83331   1.84632
 Alpha virt. eigenvalues --    1.88587   1.89473   1.89846   1.90746   1.94606
 Alpha virt. eigenvalues --    1.97432   1.99361   2.02644   2.04196   2.07479
 Alpha virt. eigenvalues --    2.09320   2.12580   2.16000   2.17501   2.18742
 Alpha virt. eigenvalues --    2.20431   2.24316   2.30340   2.35420   2.41630
 Alpha virt. eigenvalues --    2.44269   2.50833   2.56536   2.59179   2.60321
 Alpha virt. eigenvalues --    2.68777   2.71364   2.74591   2.75766   2.78397
 Alpha virt. eigenvalues --    2.81185   2.84598   2.88698   2.92938   2.94477
 Alpha virt. eigenvalues --    2.98532   3.01005   3.04451   3.20766   3.26021
 Alpha virt. eigenvalues --    3.28210   3.31792   3.41721   3.48215   3.51227
 Alpha virt. eigenvalues --    3.55471
          Condensed to atoms (all electrons):
               1          2          3          4          5          6
     1  C    4.730020   0.355559   0.238025   0.379124  -0.024382  -0.039469
     2  C    0.355559   4.779809  -0.040595  -0.039379   0.382155   0.379446
     3  O    0.238025  -0.040595   8.198593  -0.043741   0.002462   0.000432
     4  C    0.379124  -0.039379  -0.043741   4.941259   0.000712  -0.004166
     5  H   -0.024382   0.382155   0.002462   0.000712   0.582657  -0.041678
     6  H   -0.039469   0.379446   0.000432  -0.004166  -0.041678   0.608684
     7  H   -0.023990   0.004244  -0.001239   0.387172  -0.000187   0.000085
     8  H   -0.030423  -0.007771   0.000863   0.382495   0.000022   0.005706
     9  H   -0.026703  -0.002021   0.002942   0.370942   0.000548   0.000180
    10  H    0.386629  -0.043633  -0.042981  -0.049205  -0.005423   0.005262
    11  C   -0.045176  -0.052542   0.294749   0.001447   0.002702   0.002094
    12  O   -0.031540   0.248763  -0.094009   0.002198  -0.030007  -0.039178
    13  O    0.000990   0.001544  -0.065928  -0.000073  -0.000060   0.000067
               7          8          9         10         11         12
     1  C   -0.023990  -0.030423  -0.026703   0.386629  -0.045176  -0.031540
     2  C    0.004244  -0.007771  -0.002021  -0.043633  -0.052542   0.248763
     3  O   -0.001239   0.000863   0.002942  -0.042981   0.294749  -0.094009
     4  C    0.387172   0.382495   0.370942  -0.049205   0.001447   0.002198
     5  H   -0.000187   0.000022   0.000548  -0.005423   0.002702  -0.030007
     6  H    0.000085   0.005706   0.000180   0.005262   0.002094  -0.039178
     7  H    0.555085  -0.026831  -0.026509  -0.004665  -0.000283  -0.000076
     8  H   -0.026831   0.570674  -0.025542   0.005442   0.000504  -0.000033
     9  H   -0.026509  -0.025542   0.590032   0.000194   0.000021   0.000044
    10  H   -0.004665   0.005442   0.000194   0.622468   0.002891   0.000839
    11  C   -0.000283   0.000504   0.000021   0.002891   4.089526   0.291934
    12  O   -0.000076  -0.000033   0.000044   0.000839   0.291934   8.162722
    13  O   -0.000001  -0.000015   0.000001   0.000060   0.712008  -0.065878
              13
     1  C    0.000990
     2  C    0.001544
     3  O   -0.065928
     4  C   -0.000073
     5  H   -0.000060
     6  H    0.000067
     7  H   -0.000001
     8  H   -0.000015
     9  H    0.000001
    10  H    0.000060
    11  C    0.712008
    12  O   -0.065878
    13  O    7.812147
 Mulliken charges:
               1
     1  C    0.131337
     2  C    0.034420
     3  O   -0.449572
     4  C   -0.328784
     5  H    0.130478
     6  H    0.122535
     7  H    0.137194
     8  H    0.124908
     9  H    0.115871
    10  H    0.122124
    11  C    0.700127
    12  O   -0.445776
    13  O   -0.394863
 Sum of Mulliken charges =   0.00000
 Mulliken charges with hydrogens summed into heavy atoms:
               1
     1  C    0.253461
     2  C    0.287433
     3  O   -0.449572
     4  C    0.049190
    11  C    0.700127
    12  O   -0.445776
    13  O   -0.394863
 APT charges:
               1
     1  C    0.487162
     2  C    0.413711
     3  O   -0.807664
     4  C    0.015209
     5  H   -0.003984
     6  H   -0.036582
     7  H    0.014954
     8  H    0.005695
     9  H    0.004042
    10  H   -0.064023
    11  C    1.511491
    12  O   -0.754689
    13  O   -0.785322
 Sum of APT charges =  -0.00000
 APT charges with hydrogens summed into heavy atoms:
               1
     1  C    0.423139
     2  C    0.373145
     3  O   -0.807664
     4  C    0.039899
    11  C    1.511491
    12  O   -0.754689
    13  O   -0.785322
 Electronic spatial extent (au):  <R**2>=            857.5733
 Charge=             -0.0000 electrons
 Dipole moment (field-independent basis, Debye):
    X=             -1.2145    Y=              5.1428    Z=             -1.6093  Tot=              5.5239
 Quadrupole moment (field-independent basis, Debye-Ang):
   XX=            -42.9826   YY=            -39.6676   ZZ=            -38.7803
   XY=              3.2447   XZ=             -2.0561   YZ=              0.7033
 Traceless Quadrupole moment (field-independent basis, Debye-Ang):
   XX=             -2.5057   YY=              0.8092   ZZ=              1.6965
   XY=              3.2447   XZ=             -2.0561   YZ=              0.7033
 Octapole moment (field-independent basis, Debye-Ang**2):
  XXX=            -94.0083  YYY=            -54.7321  ZZZ=             -4.3020  XYY=            -30.2093
  XXY=            -17.5159  XXZ=             -5.1702  XZZ=            -29.9182  YZZ=            -22.0238
  YYZ=             -6.2353  XYZ=              1.9854
 Hexadecapole moment (field-independent basis, Debye-Ang**3):
 XXXX=           -343.6110 YYYY=           -649.0384 ZZZZ=            -84.6544 XXXY=            -61.2717
 XXXZ=            -26.2847 YYYX=            -51.0987 YYYZ=             31.3998 ZZZX=            -21.7327
 ZZZY=             28.1620 XXYY=           -161.2240 XXZZ=            -70.4724 YYZZ=           -123.4995
 XXYZ=             10.3910 YYXZ=            -11.7683 ZZXY=            -23.7481
 N-N= 3.198142434446D+02 E-N=-1.533146863275D+03  KE= 3.791815344376D+02
  Exact polarizability:  43.498  -1.990  57.948   2.175  -5.129  39.124
 Approx polarizability:  52.067  -3.753  64.243   2.873  -6.519  47.539
   1 Symmetry operations used in ECPInt.
 ECPInt:  NShTT=    1081 NPrTT=    5922 LenC2=    1069 LenP2D=    4339.
 LDataN:  DoStor=T MaxTD1= 6 Len=  172
 Calling FoFJK, ICntrl=    100127 FMM=F ISym2X=0 I1Cent= 0 IOpClX= 0 NMat=1 NMatS=1 NMatT=0.
 Full mass-weighted force constant matrix:
 Low frequencies ---   -4.4585   -0.0012   -0.0006    0.0009    1.4249    4.7505
 Low frequencies ---  104.8339  181.9640  230.9118
 Diagonal vibrational polarizability:
        6.2506068      10.7462179       4.7628415
 Harmonic frequencies (cm**-1), IR intensities (KM/Mole), Raman scattering
 activities (A**4/AMU), depolarization ratios for plane and unpolarized
 incident light, reduced masses (AMU), force constants (mDyne/A),
 and normal coordinates:
                      1                      2                      3
                      A                      A                      A
 Frequencies --    104.8338               181.9640               230.9118
 Red. masses --      4.0954                 3.5431                 1.1358
 Frc consts  --      0.0265                 0.0691                 0.0357
 IR Inten    --      0.7777                 0.7776                 0.1038
  Atom  AN      X      Y      Z        X      Y      Z        X      Y      Z
     1   6    -0.02  -0.03   0.08     0.06  -0.02  -0.00    -0.04   0.01  -0.00
     2   6    -0.00   0.01   0.15     0.02   0.00  -0.17    -0.03  -0.01   0.02
     3   8    -0.08   0.06   0.29    -0.01   0.01   0.10    -0.01   0.01  -0.04
     4   6     0.06   0.09  -0.23    -0.05   0.02  -0.02     0.04  -0.02   0.02
     5   1    -0.10   0.17   0.25     0.22  -0.26  -0.36    -0.07  -0.00   0.05
     6   1     0.11  -0.14   0.29    -0.17   0.27  -0.42    -0.02  -0.05   0.05
     7   1     0.07  -0.00  -0.26    -0.02  -0.04   0.23     0.13  -0.38   0.47
     8   1     0.05   0.37  -0.23    -0.32   0.13  -0.10    -0.41   0.20  -0.10
     9   1     0.12   0.00  -0.43     0.12  -0.01  -0.24     0.53   0.09  -0.30
    10   1    -0.04  -0.27   0.07     0.19  -0.05   0.04    -0.06   0.04  -0.01
    11   6    -0.01  -0.02  -0.00    -0.00   0.00   0.04     0.00   0.00  -0.01
    12   8     0.02  -0.03  -0.12    -0.06   0.06   0.28    -0.00  -0.02  -0.02
    13   8     0.02  -0.07  -0.15     0.05  -0.07  -0.20     0.03   0.02   0.02
                      4                      5                      6
                      A                      A                      A
 Frequencies --    306.3293               457.1238               550.7434
 Red. masses --      2.5706                 2.5710                 6.7673
 Frc consts  --      0.1421                 0.3165                 1.2094
 IR Inten    --      0.9962                 3.2102                 0.7996
  Atom  AN      X      Y      Z        X      Y      Z        X      Y      Z
     1   6    -0.09   0.02  -0.01    -0.05   0.10   0.17     0.16  -0.04   0.11
     2   6    -0.11  -0.04  -0.10    -0.06  -0.07  -0.04     0.10   0.12  -0.01
     3   8    -0.11   0.08   0.07     0.04  -0.05  -0.09    -0.16  -0.20  -0.06
     4   6     0.20  -0.09   0.04     0.09   0.21  -0.00     0.02   0.10   0.02
     5   1    -0.02  -0.15  -0.18     0.16  -0.18  -0.22     0.17   0.31  -0.01
     6   1    -0.24  -0.02  -0.19    -0.37  -0.10  -0.20     0.16   0.13   0.01
     7   1     0.21  -0.28  -0.25     0.09   0.13  -0.24    -0.03   0.36  -0.01
     8   1     0.54  -0.24   0.13     0.25   0.54   0.05    -0.04   0.33   0.00
     9   1     0.20   0.09   0.35     0.08   0.12  -0.16    -0.16  -0.15  -0.22
    10   1    -0.07  -0.02  -0.01    -0.08   0.22   0.16     0.23   0.05   0.13
    11   6    -0.01   0.03   0.01     0.02  -0.06  -0.02    -0.20  -0.11  -0.07
    12   8    -0.04  -0.05  -0.00     0.02  -0.06   0.01    -0.26  -0.01  -0.06
    13   8     0.12   0.06  -0.01    -0.06  -0.07   0.03     0.36   0.10   0.08
                      7                      8                      9
                      A                      A                      A
 Frequencies --    646.7491               730.7704               780.6860
 Red. masses --      3.3828                 9.4158                12.1545
 Frc consts  --      0.8337                 2.9626                 4.3646
 IR Inten    --      2.1400                 3.0526                25.9772
  Atom  AN      X      Y      Z        X      Y      Z        X      Y      Z
     1   6    -0.07  -0.14   0.21     0.20  -0.10   0.08     0.02   0.00  -0.02
     2   6    -0.12   0.08   0.01     0.08  -0.36   0.06    -0.02  -0.05  -0.01
     3   8     0.14  -0.08   0.00     0.17   0.07   0.03     0.09  -0.09  -0.17
     4   6    -0.05  -0.18  -0.05     0.05   0.00   0.03     0.01   0.04   0.02
     5   1     0.26   0.10  -0.23     0.08  -0.18   0.11    -0.09   0.01   0.06
     6   1    -0.47   0.07  -0.18     0.20  -0.35   0.12     0.04  -0.11   0.06
     7   1    -0.06  -0.18  -0.20     0.03   0.13   0.00     0.01   0.06   0.02
     8   1     0.00   0.14  -0.03     0.04   0.14   0.02     0.02   0.06   0.02
     9   1    -0.10  -0.35  -0.27    -0.03  -0.13  -0.11     0.01   0.04   0.02
    10   1    -0.23  -0.15   0.17     0.24   0.01   0.08    -0.00   0.04  -0.02
    11   6     0.04   0.08  -0.02    -0.10   0.26  -0.15    -0.25   0.24   0.82
    12   8     0.02   0.12  -0.06    -0.22  -0.27   0.07     0.01  -0.05  -0.20
    13   8     0.03   0.10  -0.01    -0.16   0.37  -0.13     0.08  -0.03  -0.25
                     10                     11                     12
                      A                      A                      A
 Frequencies --    884.7155               938.6526               972.0128
 Red. masses --      3.4902                 2.2271                 1.3379
 Frc consts  --      1.6095                 1.1561                 0.7447
 IR Inten    --      0.8903                 5.1563                 5.1823
  Atom  AN      X      Y      Z        X      Y      Z        X      Y      Z
     1   6     0.04  -0.01  -0.11     0.10  -0.04  -0.01     0.00  -0.00   0.01
     2   6    -0.25   0.05  -0.01    -0.13  -0.04   0.03     0.08   0.02   0.10
     3   8     0.23  -0.07   0.10    -0.13  -0.05  -0.02    -0.03   0.04  -0.03
     4   6     0.06   0.13  -0.02     0.12   0.00   0.02     0.02   0.02  -0.06
     5   1    -0.31   0.05   0.01    -0.24  -0.29   0.04     0.56  -0.00  -0.21
     6   1    -0.22   0.05   0.01    -0.23  -0.09   0.02    -0.38   0.00  -0.15
     7   1     0.06   0.29   0.36     0.03   0.61   0.27     0.02   0.12   0.24
     8   1    -0.15  -0.33  -0.07    -0.24  -0.02  -0.07    -0.16  -0.36  -0.10
     9   1     0.01   0.30   0.30    -0.25  -0.31  -0.12    -0.04   0.12   0.17
    10   1    -0.04  -0.32  -0.12     0.06  -0.14  -0.03    -0.33  -0.20  -0.09
    11   6     0.04  -0.03  -0.02    -0.01   0.04  -0.02    -0.03  -0.01   0.01
    12   8    -0.14  -0.01  -0.04     0.14   0.04   0.02    -0.01  -0.04  -0.01
    13   8     0.04  -0.03   0.03    -0.02   0.05  -0.02    -0.01  -0.01  -0.00
                     13                     14                     15
                      A                      A                      A
 Frequencies --    997.4110              1133.9643              1145.0271
 Red. masses --      3.1109                 2.9599                 4.0461
 Frc consts  --      1.8234                 2.2425                 3.1255
 IR Inten    --     16.4523                30.0714               122.8056
  Atom  AN      X      Y      Z        X      Y      Z        X      Y      Z
     1   6     0.09   0.05   0.02     0.07   0.20  -0.06     0.13   0.15   0.04
     2   6    -0.07   0.11  -0.01     0.01  -0.17   0.13    -0.08   0.27   0.02
     3   8     0.03   0.22  -0.04     0.06  -0.00   0.05     0.02  -0.07   0.02
     4   6     0.08  -0.14   0.03    -0.02  -0.09  -0.04    -0.10  -0.06  -0.10
     5   1    -0.02   0.20  -0.03     0.03  -0.60   0.01    -0.20  -0.22  -0.00
     6   1    -0.07   0.07   0.01    -0.32  -0.08  -0.09    -0.33   0.03  -0.00
     7   1    -0.01   0.34  -0.01    -0.02  -0.10  -0.12    -0.04  -0.41  -0.11
     8   1    -0.16   0.15  -0.04    -0.03  -0.10  -0.05     0.07  -0.31  -0.06
     9   1    -0.26  -0.58  -0.36    -0.03  -0.16  -0.13     0.09   0.13   0.04
    10   1     0.03   0.29  -0.01     0.10   0.52  -0.06     0.33   0.34   0.10
    11   6     0.07  -0.04   0.05    -0.11  -0.07  -0.02    -0.15  -0.01  -0.03
    12   8    -0.12  -0.11  -0.02    -0.05   0.16  -0.06     0.14  -0.22   0.05
    13   8    -0.01  -0.12   0.03     0.05  -0.03   0.02    -0.02   0.06  -0.02
                     16                     17                     18
                      A                      A                      A
 Frequencies --   1170.9199              1184.2566              1216.3476
 Red. masses --      4.1528                 1.9577                 2.3881
 Frc consts  --      3.3546                 1.6177                 2.0817
 IR Inten    --    171.4402                 4.1624               167.1234
  Atom  AN      X      Y      Z        X      Y      Z        X      Y      Z
     1   6     0.22  -0.26   0.09    -0.01   0.08   0.19     0.09   0.04  -0.01
     2   6    -0.10  -0.03   0.03     0.00  -0.07  -0.11    -0.08  -0.05   0.11
     3   8     0.00   0.23  -0.10    -0.01   0.01  -0.04    -0.11  -0.05  -0.04
     4   6    -0.10   0.08  -0.00     0.03  -0.02  -0.14    -0.06   0.00  -0.04
     5   1    -0.19  -0.22   0.04    -0.21   0.31   0.11     0.27   0.18  -0.08
     6   1    -0.16  -0.12   0.05     0.18  -0.40   0.17    -0.16   0.23  -0.08
     7   1    -0.02  -0.36  -0.03     0.05  -0.01   0.23    -0.02  -0.22  -0.06
     8   1     0.31   0.03   0.12    -0.18  -0.54  -0.19     0.09  -0.11   0.00
     9   1     0.25   0.39   0.16    -0.12   0.06   0.17     0.09   0.14   0.05
    10   1     0.25  -0.26   0.08     0.13   0.06   0.23     0.73  -0.03   0.19
    11   6    -0.14  -0.09  -0.01     0.00  -0.01   0.01     0.23   0.08   0.04
    12   8     0.04   0.10  -0.02    -0.01   0.05   0.03    -0.07   0.00  -0.04
    13   8     0.02  -0.06   0.02     0.01  -0.02   0.01    -0.02  -0.02  -0.00
                     19                     20                     21
                      A                      A                      A
 Frequencies --   1260.3593              1386.0944              1401.8951
 Red. masses --      1.2025                 1.2518                 1.5665
 Frc consts  --      1.1254                 1.4170                 1.8139
 IR Inten    --      9.3550                18.8932                56.1332
  Atom  AN      X      Y      Z        X      Y      Z        X      Y      Z
     1   6    -0.05  -0.01   0.08    -0.01  -0.09  -0.01    -0.15  -0.01  -0.04
     2   6     0.03   0.02   0.02    -0.07  -0.05   0.01     0.01   0.01   0.04
     3   8     0.00   0.02  -0.02     0.00  -0.00   0.02     0.05   0.04  -0.02
     4   6     0.02   0.01  -0.04     0.01  -0.01  -0.05     0.05  -0.03  -0.00
     5   1    -0.21  -0.59   0.05     0.22   0.29  -0.10     0.19   0.07  -0.06
     6   1     0.32   0.63  -0.14     0.22   0.32  -0.02    -0.05  -0.04   0.03
     7   1     0.02   0.03   0.11     0.00   0.16   0.18     0.01   0.20   0.02
     8   1    -0.06  -0.12  -0.05     0.05   0.04  -0.03    -0.15   0.20  -0.05
     9   1    -0.07   0.01   0.07     0.04   0.14   0.15    -0.07   0.01   0.17
    10   1     0.04  -0.07   0.12    -0.06   0.75  -0.05     0.81  -0.19   0.26
    11   6     0.02   0.00  -0.00    -0.03  -0.01  -0.00    -0.10  -0.03  -0.02
    12   8    -0.02  -0.02  -0.04     0.04  -0.00   0.00     0.03  -0.00   0.01
    13   8    -0.00  -0.00   0.00     0.00   0.01  -0.00     0.01   0.00   0.00
                     22                     23                     24
                      A                      A                      A
 Frequencies --   1436.5065              1454.6390              1505.0939
 Red. masses --      1.3702                 1.6159                 1.0650
 Frc consts  --      1.6659                 2.0145                 1.4214
 IR Inten    --     23.4274                10.2240                 3.9727
[...]
 ! A2    A(2,1,4)              115.3344         -DE/DX =    0.0                 !
 ! A3    A(2,1,10)             110.6658         -DE/DX =    0.0                 !
 ! A4    A(3,1,4)              110.1829         -DE/DX =    0.0                 !
 ! A5    A(3,1,10)             107.5128         -DE/DX =    0.0                 !
 ! A6    A(4,1,10)             110.7164         -DE/DX =    0.0                 !
 ! A7    A(1,2,5)              113.6491         -DE/DX =    0.0                 !
 ! A8    A(1,2,6)              111.8628         -DE/DX =    0.0                 !
 ! A9    A(1,2,12)             103.3147         -DE/DX =    0.0                 !
 ! A10   A(5,2,6)              109.4734         -DE/DX =    0.0                 !
 ! A11   A(5,2,12)             109.0705         -DE/DX =    0.0                 !
 ! A12   A(6,2,12)             109.2215         -DE/DX =    0.0                 !
 ! A13   A(1,3,11)             109.9251         -DE/DX =    0.0                 !
 ! A14   A(1,4,7)              110.6387         -DE/DX =    0.0                 !
 ! A15   A(1,4,8)              110.4076         -DE/DX =    0.0                 !
 ! A16   A(1,4,9)              110.1488         -DE/DX =    0.0                 !
 ! A17   A(7,4,8)              108.5603         -DE/DX =    0.0                 !
 ! A18   A(7,4,9)              108.2646         -DE/DX =    0.0                 !
 ! A19   A(8,4,9)              108.76           -DE/DX =    0.0                 !
 ! A20   A(3,11,12)            110.1499         -DE/DX =    0.0                 !
 ! A21   A(3,11,13)            125.0705         -DE/DX =    0.0                 !
 ! A22   A(12,11,13)           124.7796         -DE/DX =    0.0                 !
 ! A23   A(2,12,11)            109.3113         -DE/DX =    0.0                 !
 ! D1    D(3,1,2,5)           -140.7858         -DE/DX =    0.0                 !
 ! D2    D(3,1,2,6)             94.6141         -DE/DX =    0.0                 !
 ! D3    D(3,1,2,12)           -22.7402         -DE/DX =    0.0                 !
 ! D4    D(4,1,2,5)             99.92           -DE/DX =    0.0                 !
 ! D5    D(4,1,2,6)            -24.68           -DE/DX =    0.0                 !
 ! D6    D(4,1,2,12)          -142.0344         -DE/DX =    0.0                 !
 ! D7    D(10,1,2,5)           -26.7261         -DE/DX =    0.0                 !
 ! D8    D(10,1,2,6)          -151.3262         -DE/DX =    0.0                 !
 ! D9    D(10,1,2,12)           91.3195         -DE/DX =    0.0                 !
 ! D10   D(2,1,3,11)            19.2155         -DE/DX =    0.0                 !
 ! D11   D(4,1,3,11)           142.0953         -DE/DX =    0.0                 !
 ! D12   D(10,1,3,11)          -97.1614         -DE/DX =    0.0                 !
 ! D13   D(2,1,4,7)            175.9466         -DE/DX =    0.0                 !
 ! D14   D(2,1,4,8)             55.7453         -DE/DX =    0.0                 !
 ! D15   D(2,1,4,9)            -64.3884         -DE/DX =    0.0                 !
 ! D16   D(3,1,4,7)             61.3693         -DE/DX =    0.0                 !
 ! D17   D(3,1,4,8)            -58.832          -DE/DX =    0.0                 !
 ! D18   D(3,1,4,9)           -178.9657         -DE/DX =    0.0                 !
 ! D19   D(10,1,4,7)           -57.433          -DE/DX =    0.0                 !
 ! D20   D(10,1,4,8)          -177.6342         -DE/DX =    0.0                 !
 ! D21   D(10,1,4,9)            62.232          -DE/DX =    0.0                 !
 ! D22   D(1,2,12,11)           19.4577         -DE/DX =    0.0                 !
 ! D23   D(5,2,12,11)          140.6537         -DE/DX =    0.0                 !
 ! D24   D(6,2,12,11)          -99.7369         -DE/DX =    0.0                 !
 ! D25   D(1,3,11,12)           -8.0748         -DE/DX =    0.0                 !
 ! D26   D(1,3,11,13)          171.9181         -DE/DX =    0.0                 !
 ! D27   D(3,11,12,2)           -8.096          -DE/DX =    0.0                 !
 ! D28   D(13,11,12,2)         171.911          -DE/DX =    0.0                 !
 --------------------------------------------------------------------------------
 GradGradGradGradGradGradGradGradGradGradGradGradGradGradGradGradGradGrad


 ----------------------------------------------------------------------

 Electric dipole moment (input orientation):
 (Debye = 10**-18 statcoulomb cm , SI units = C m)
                  (au)            (Debye)         (10**-30 SI)
   Tot        0.217327D+01      0.552391D+01      0.184258D+02
   x         -0.477826D+00     -0.121451D+01     -0.405118D+01
   y          0.202334D+01      0.514282D+01      0.171546D+02
   z         -0.633163D+00     -0.160934D+01     -0.536818D+01

 Dipole polarizability, Alpha (input orientation).
 (esu units = cm**3 , SI units = C**2 m**2 J**-1)
 Alpha(0;0):
               (au)            (10**-24 esu)      (10**-40 SI)
   iso        0.468568D+02      0.694347D+01      0.772565D+01
   aniso      0.199033D+02      0.294937D+01      0.328162D+01
   xx         0.434979D+02      0.644572D+01      0.717183D+01
   yx        -0.199012D+01     -0.294906D+00     -0.328127D+00
   yy         0.579482D+02      0.858704D+01      0.955437D+01
   zx         0.217517D+01      0.322326D+00      0.358637D+00
   zy        -0.512937D+01     -0.760094D+00     -0.845719D+00
   zz         0.391245D+02      0.579765D+01      0.645075D+01

 ----------------------------------------------------------------------

 Dipole orientation:
     6          2.47535977         -0.40316618          2.48689705
     6         -0.37032661          0.07353770          2.31427588
     8          3.07527217         -1.11583584         -0.05822633
     6          3.26064225         -2.46453349          4.29776557
     1         -1.00503912          1.69571826          3.41538842
     1         -1.46644759         -1.59854144          2.85375625
     1          5.29784494         -2.77439622          4.20740218
     1          2.30518474         -4.23491082          3.83167081
     1          2.77126348         -1.93504604          6.23474506
     1          3.48802860          1.35710068          2.89654616
     6          1.22763238         -0.32940293         -1.64206912
     8         -0.75642601          0.58036278         -0.30083374
     8          1.32473687         -0.42046154         -3.88806551

 Electric dipole moment (dipole orientation):
 (Debye = 10**-18 statcoulomb cm , SI units = C m)
                  (au)            (Debye)         (10**-30 SI)
   Tot        0.217327D+01      0.552391D+01      0.184258D+02
   x          0.000000D+00      0.000000D+00      0.000000D+00
   y          0.000000D+00      0.000000D+00      0.000000D+00
   z          0.217327D+01      0.552391D+01      0.184258D+02

 Dipole polarizability, Alpha (dipole orientation).
 (esu units = cm**3 , SI units = C**2 m**2 J**-1)
 Alpha(0;0):
               (au)            (10**-24 esu)      (10**-40 SI)
   iso        0.468568D+02      0.694347D+01      0.772565D+01
   aniso      0.199033D+02      0.294937D+01      0.328162D+01
   xx         0.424791D+02      0.629476D+01      0.700386D+01
   yx        -0.245578D+01     -0.363909D+00     -0.404904D+00
   yy         0.385635D+02      0.571452D+01      0.635826D+01
   zx         0.920313D+00      0.136376D+00      0.151739D+00
   zy        -0.959134D+00     -0.142129D+00     -0.158140D+00
   zz         0.595279D+02      0.882113D+01      0.981483D+01

 ----------------------------------------------------------------------
 1\1\GINC-NODE5063\Freq\RCAM-B3LYP\Gen\C4H6O3\X1711A05\22-Aug-2019\0\\#
 N Geom=AllCheck Guess=TCheck SCRF=Check GenChk RCAM-B3LYP/ChkBas Freq\
 \PC_opt_freq_6_31G\\0,1\C,1.005343,1.503,-0.472781\C,-0.464061,1.09631
 5,-0.349937\O,1.666818,0.423408,0.200915\C,1.367563,2.819668,0.172243\
 H,-1.051547,1.303331,-1.245048\H,-0.944899,1.561064,0.518204\H,2.44175
 4,2.999944,0.101811\H,1.083616,2.817902,1.227477\H,0.848512,3.640788,-
 0.330307\H,1.325847,1.483515,-1.520988\C,0.843998,-0.648711,0.272614\O
 ,-0.39898,-0.312634,-0.151539\O,1.162414,-1.731257,0.652445\\Version=E
 S64L-G16RevA.03\HF=-381.5635546\RMSD=1.557e-09\RMSF=2.256e-06\ZeroPoin
 t=0.104474\Thermal=0.1106477\Dipole=-0.4778263,2.0233402,-0.6331629\Di
 poleDeriv=0.2780023,-0.2085495,0.0742783,0.0325058,0.7528927,-0.123163
 4,0.0082859,-0.1641524,0.4305902,0.2371829,-0.0055357,-0.0091428,-0.24
 62207,0.6613719,-0.0584471,0.0318391,-0.0381003,0.3425767,-0.6434063,-
 0.28892,-0.0211442,-0.1615085,-1.4147969,0.2953474,-0.0530654,0.237190
 8,-0.3647878,0.0499757,-0.0474852,-0.0103648,-0.0114584,-0.0408279,-0.
 021269,-0.0055655,-0.0472721,0.0364798,0.0142218,0.0286478,-0.0475789,
 0.0276042,0.0130195,0.0193537,-0.0878487,0.0362168,-0.0391939,0.014859
 4,0.0268586,0.0335021,0.0644814,-0.0562221,-0.0232184,0.0762414,-0.063
 7076,-0.0683823,-0.0780003,-0.0517797,0.0056518,-0.0168682,0.0492446,-
 0.012858,0.014941,-0.0291561,0.0736162,0.0477184,-0.0101449,0.061693,-
 0.021317,0.0468627,0.0243963,0.0364445,-0.0214829,-0.0774964,0.0283771
 ,0.0747515,-0.0508093,0.0352058,-0.0389011,0.0395405,-0.0539335,0.0568
 431,0.0226486,-0.0069266,0.0216995,0.0367463,-0.0031057,-0.0477655,-0.
 02256,0.0430682,0.0346929,-0.1373754,1.600576,-0.093781,0.242875,-0.10
 90638,2.312163,-0.543499,0.3097004,-0.5620617,0.6217353,-0.9633461,0.3
 484594,-0.2294026,0.2185766,-0.9386414,0.1447868,-0.2252541,0.2497393,
 -0.3620802,-0.5792346,0.2057792,-0.0863039,0.1911684,-1.2983994,0.2815
 902,-0.0948533,0.3112502,-0.4783309\Polar=43.4978923,-1.9901226,57.948
 2027,2.1751666,-5.1293698,39.124452\Quadrupole=-1.8629474,0.6016145,1.
 2613328,2.4123626,-1.5286458,0.5228702\PG=C01 [X(C4H6O3)]\NImag=0\\0.4
 9428287,0.05586359,0.53954002,-0.05455421,0.02094880,0.61093821,-0.180
 30456,-0.01483268,0.01682169,0.56987494,-0.03997288,-0.06710357,-0.004
 94108,-0.07718513,0.47598455,0.02656740,-0.00202631,-0.09014655,0.0376
 9859,0.01491750,0.64420471,-0.12287508,0.02325187,-0.03092418,-0.03930
 907,0.00977352,-0.02415701,0.37613623,0.04861268,-0.12521933,0.0503859
 2,0.01625770,-0.02277909,0.01218715,0.06097605,0.44908785,-0.03807424,
 0.04002788,-0.10622558,-0.01511768,0.00299160,-0.00262283,0.08421682,-
 0.11811978,0.14738535,-0.09616864,-0.03792400,-0.01466468,-0.00346030,
 -0.02820837,-0.01326531,0.00870079,0.02494394,0.00427278,0.59817857,-0
 .02916210,-0.17744331,-0.05390027,-0.00775952,-0.00720015,-0.00215759,
 -0.00436455,-0.03903757,-0.00527895,-0.01389450,0.52993854,-0.01774264
 ,-0.06667116,-0.11937363,-0.00010698,0.00198325,0.00101567,0.00580786,
 0.02269888,0.00948753,-0.00922419,-0.03379722,0.58527860,-0.01033825,0
 .00639376,-0.02433015,-0.13198070,0.02620511,-0.12120481,-0.00523582,0
 .00135296,-0.00091498,-0.00154263,0.00018851,0.00076799,0.13773319,-0.
 00093878,0.00382268,-0.00941646,0.01791771,-0.05520038,0.02857130,-0.0
 0144258,0.00264242,-0.00044607,-0.00003678,-0.00021031,-0.00001465,-0.
 03028269,0.06822621,0.00442726,-0.00138662,0.00491349,-0.12410209,0.03
 753044,-0.24742047,0.00205234,-0.00153796,0.00145585,-0.00040615,0.000
 05894,-0.00021625,0.13178957,-0.04342738,0.25660136,-0.01243730,0.0087
 5470,0.02795634,-0.10553328,0.04563641,0.08773138,0.00049134,0.0002913
 0,-0.00149008,0.00198440,0.00142399,0.00133034,0.00949050,-0.00725340,
 -0.01435725,0.10742766,-0.00441608,0.00361503,0.00917434,0.04370629,-0
 .08511434,-0.07963901,0.00110434,0.00308014,0.00001733,-0.00058411,0.0
 0109605,0.00077672,-0.00260817,0.00552048,0.00338239,-0.05091613,0.110
 05048,0.00083850,0.00059112,-0.00284460,0.09022655,-0.08461434,-0.2303
 0560,0.00073300,-0.00077430,0.00024256,-0.00090124,-0.00051861,0.00109
 000,0.01257392,-0.00985849,-0.01937558,-0.09930539,0.09142653,0.235844
 71,-0.00646537,-0.00018360,0.00072682,0.00103182,-0.00022451,-0.000716
 17,0.00116027,0.00013988,0.00020050,-0.32010546,-0.04433307,0.01926694
 ,-0.00014367,-0.00007923,-0.00004556,0.00033052,-0.00001803,-0.0001728
 8,0.34253828,-0.03293305,-0.00566361,0.00289180,0.00133184,-0.00375670
 ,-0.00290634,0.00121898,0.00352357,0.00009846,-0.04116730,-0.05501026,
 0.00256916,-0.00059785,-0.00021666,-0.00009952,0.00021928,-0.00016878,
 0.00007794,0.04851869,0.05796429,-0.01733529,-0.00176048,0.00032551,0.
 00176780,-0.00258632,-0.00058240,0.00089927,0.00081776,0.00013766,0.02
 065503,0.00239870,-0.05196430,-0.00004875,0.00027851,0.00011413,-0.000
 34772,0.00008497,0.00025271,-0.02030844,-0.00050704,0.05049328,0.00111
 662,0.00097196,-0.00906386,0.00118330,-0.00025401,-0.00197099,-0.00034
 370,0.00015209,0.00040438,-0.06977802,-0.00181883,0.07085366,-0.000016
 11,-0.00009354,0.00008569,-0.00026695,0.00009193,0.00024757,-0.0058761
 4,-0.00007667,0.03149230,0.06929711,0.00775962,-0.00131638,-0.03273018
 ,0.00183905,0.00093484,-0.00040194,0.00016148,0.00363343,0.00153081,-0
 .00155115,-0.04919059,0.00542589,0.00009296,0.00013250,0.00010132,-0.0
 0046010,0.00026562,0.00051443,-0.00044367,-0.00091573,0.00491301,0.003
 35346,0.05085245,0.00332002,0.00074280,-0.01632683,0.00144372,0.000325
 58,0.00030027,-0.00023259,0.00026067,0.00234573,0.06962281,0.00215489,
 -0.30438276,0.00003019,0.00025673,0.00028189,-0.00110013,-0.00016384,0
 .00046365,-0.00020759,0.00023543,0.00011914,-0.07569761,-0.00058717,0.
 32820228,0.00318021,-0.00636374,0.00565085,0.00016317,0.00012320,0.000
 15811,0.00029301,-0.00286072,-0.00088652,-0.11055890,0.09734554,-0.060
 69932,0.00003224,-0.00008513,-0.00006629,-0.00003465,0.00020973,0.0001
 6688,-0.01277572,0.02506676,-0.01522144,0.00413985,-0.00855982,0.00377
 922,0.11460248,0.01530981,-0.01698357,0.01701692,0.00015201,0.00011680
 ,0.00028760,-0.00337598,-0.00766953,-0.00248515,0.09600538,-0.20197736
 ,0.09211533,-0.00040205,-0.00021478,-0.00013853,-0.00033183,0.00011227
 ,0.00019047,-0.00267178,0.00543042,-0.00366365,-0.00140904,0.00108437,
 -0.00077076,-0.10558406,0.21824951,0.00913908,-0.00937057,0.00701054,-
 0.00016943,0.00024853,0.00051398,-0.00150603,-0.00399066,0.00020738,-0
 .06096161,0.09395610,-0.10836958,-0.00007420,0.00003681,0.00003574,0.0
 0001261,0.00024077,-0.00012711,0.00159995,-0.00304859,0.00050900,-0.01
 600388,0.02345466,-0.01151503,0.06675415,-0.10177363,0.11140186,-0.079
 09140,-0.00181277,0.07985027,-0.01219255,0.00477140,0.03086481,0.00813
 829,0.00939474,-0.02143573,0.00395912,-0.00180516,-0.00877412,0.001275
 71,0.00033875,-0.00015503,-0.00509901,-0.00251305,0.00063780,0.0005662
 8,0.00073107,-0.00027841,0.00041884,-0.00172587,-0.00103723,0.00018246
 ,0.00008070,0.00036153,0.08386797,0.00049649,-0.05240390,-0.01668512,-
 0.00308735,0.00165198,0.00709597,-0.00368449,-0.01314845,0.03433249,0.
 00848442,0.00001214,-0.02986952,0.00042386,0.00077705,-0.00018457,-0.0
 0097966,-0.00020757,0.00005472,-0.00017551,0.00109992,0.00080617,-0.00
 167410,-0.00519601,-0.00278488,0.00043417,0.00098316,0.00094769,-0.004
 14205,0.06330138,0.07757833,-0.01290684,-0.28585890,0.00002078,-0.0011
 4366,0.00048522,-0.00119603,0.01593944,-0.01540027,0.00480659,-0.00208
 317,-0.01185473,0.00040565,0.00010982,0.00118203,-0.00014897,-0.000005
 62,0.00125693,-0.00032333,0.00038063,0.00037282,-0.00064810,-0.0023119
 0,0.00028306,0.00018180,-0.00055790,0.00016346,-0.07793219,0.00475705,
 0.31096711,0.03283354,-0.01805292,0.01439216,-0.00408229,0.05663662,-0
 .01333772,-0.18096723,-0.08617681,-0.00814973,-0.01059521,0.00737057,-
 0.00454170,-0.00271394,-0.00845815,0.00376902,-0.00062720,-0.00934426,
 -0.00058548,-0.00087470,-0.00249386,-0.00056156,0.00076670,-0.00090349
 ,0.00053107,0.00116919,0.00413947,0.00107441,-0.00436089,0.00509792,-0
 .00484819,0.55342637,0.00822335,-0.06558805,0.02153393,0.03762568,-0.0
 3012465,0.01480246,-0.05506000,-0.17467443,0.01839757,-0.00025992,-0.0
 0129017,0.00120093,-0.00155373,-0.00533548,-0.00038765,0.00003165,-0.0
 0258275,0.00088416,-0.00002354,-0.00020710,0.00036890,0.00030953,-0.00
 048510,0.00019265,-0.00046014,0.00112569,-0.00038132,-0.00320017,0.004
 63149,-0.00403651,-0.15584805,1.09889623,0.01028583,0.01676187,-0.0078
 8594,-0.00530972,0.01960343,-0.01040353,-0.02076891,0.00926944,-0.0716
 1217,-0.00103734,-0.00011512,0.00016472,-0.00036741,0.00298893,0.00021
 973,0.00043642,-0.00679619,0.00073427,-0.00018844,-0.00044369,-0.00035
 674,0.00027099,-0.00027424,0.00000862,0.00024527,-0.00015989,0.0002888
 2,-0.00228279,0.00420114,-0.00226552,0.13041205,-0.28015214,0.33339224
 ,-0.01854016,-0.01614725,-0.00835006,-0.08905853,0.01216936,-0.0057880
 6,-0.07088270,-0.04353036,-0.01385783,-0.00269164,-0.00160616,0.002012
 82,0.00301635,0.02695040,-0.00248541,0.00415312,0.02319768,-0.00450504
 ,0.00039634,-0.00031956,-0.00082394,-0.00048155,0.00032557,-0.00035318
 ,-0.00009296,-0.00112803,0.00005344,0.00184309,-0.00091061,0.00157761,
 -0.23146451,-0.00860725,-0.04527572,0.42710790,-0.01574016,-0.04245802
 ,0.00193913,-0.01874740,-0.21607082,0.00818843,-0.02030343,0.00555365,
 0.00110279,-0.00766085,0.00184505,0.00136604,0.00026427,-0.01798661,0.
 00570868,0.00352143,-0.03432958,0.00202660,-0.00036665,-0.00218126,-0.
 00101965,0.00048938,-0.00006479,0.00028160,0.00077187,0.00090580,0.000
 14499,-0.00166513,0.00103252,0.00013429,0.02858566,-0.11381062,0.01720
 111,-0.03334126,0.44444591,-0.00504955,0.01564707,-0.00093529,0.001052
 39,0.01920783,-0.06963133,-0.01961727,-0.00812316,0.02051034,0.0016640
 6,-0.00151533,0.00029107,0.00142996,0.03074480,0.00238158,-0.00057424,
 -0.02089293,0.01335612,0.00006585,0.00072422,0.00053968,0.00016297,0.0
 0041693,0.00023445,-0.00013222,-0.00047651,-0.00026123,-0.00019487,-0.
 00193190,0.00054144,-0.05153442,0.00993678,-0.07885625,0.09961281,-0.0
 6674660,0.10643800,-0.00519248,0.00008106,-0.00351100,-0.00633196,-0.0
 0947072,-0.00258023,0.02469365,-0.02955343,0.01083231,0.00207792,-0.00
 158472,0.00104934,0.00042313,0.00346341,-0.00050610,0.00012085,0.00208
 985,0.00004581,0.00021756,0.00050167,0.00011115,-0.00015996,0.00011195
 ,-0.00009870,-0.00030037,-0.00078462,-0.00028001,0.00049209,-0.0002830
 9,0.00052606,-0.15250983,0.17882257,-0.06642024,-0.02330474,0.06419226
 ,-0.02688548,0.15977414,-0.01310249,0.00720202,-0.00621772,0.00278180,
 0.00866152,0.00108079,-0.00825521,-0.08499265,0.02783104,0.00185323,-0
 .00153207,0.00221635,0.00052306,-0.00195713,0.00038045,0.00006236,-0.0
 0133704,-0.00000021,-0.00013897,0.00010190,-0.00013087,-0.00004217,0.0
 0026538,-0.00014367,-0.00003766,-0.00116276,-0.00046477,0.00154752,-0.
 00253371,0.00172437,0.17944730,-0.71055506,0.21791535,0.04294746,-0.02
 688123,0.02300880,-0.20758620,0.81472082,0.00059951,-0.00059757,0.0064
 0957,-0.00422562,-0.00352275,0.00459287,0.00469273,0.02098660,0.014088
 44,-0.00056075,0.00079764,-0.00116633,-0.00005698,0.00017616,-0.000173
 50,-0.00014330,0.00239454,-0.00058806,0.00010234,0.00002755,0.00003950
 ,-0.00013312,-0.00005161,-0.00001447,0.00006951,0.00041572,0.00014215,
 0.00037597,-0.00073922,0.00012736,-0.06661991,0.21764025,-0.16342824,-
 0.02181745,0.02967260,0.00539141,0.08771708,-0.26719990,0.13457930\\-0
 .00000157,-0.00000254,0.00000396,0.00000329,-0.00000468,-0.00000017,0.
 ,0.00000180,-0.00000037,-0.00000033,-0.00000124,-0.00000061,-0.0000010
 8,-0.00000008,-0.00000100,-0.00000096,0.00000158,0.00000194,0.00000185
 ,0.00000037,-0.00000044,-0.00000028,0.,0.00000105,-0.00000063,0.000000
 67,-0.00000075,0.00000050,-0.00000005,-0.00000291,0.00000142,-0.000006
 00,0.00000225,-0.00000024,0.00000320,-0.00000061,-0.00000197,0.0000069
 7,-0.00000233\\\@


 IT IS WELL TO REMEMBER THAT MAN IS A PART OF NATURE AND THAT HIS WORKS,
 WHATEVER THEY MAY BE, ARE NO MORE "UNNATURAL" THAN 
 THE FLIGHT OF AN EAGLE OR THE PASSAGE OF A TORNADO.

                                    -- CHARLES MCCARRY IN "THE GREAT SOUTHWEST"
 Job cpu time:       0 days  0 hours 39 minutes 56.9 seconds.
 Elapsed time:       0 days  0 hours  0 minutes 38.4 seconds.
 File lengths (MBytes):  RWF=     31 Int=      0 D2E=      0 Chk=      3 Scr=      1
 Normal termination of Gaussian 16 at Thu Aug 22 12:00:50 2019.
