 Entering Gaussian System, Link 0=g16
 Input=Zn_cat_opt_freq_sin.com
 Output=Zn_cat_opt_freq_sin.log
 Initial command:
 /apps/commercial/G16/g16.linda/l1.exe "/scratch/x1711a05/Gau-55205.inp" -scrdir="/scratch/x1711a05/"
 Default linda workers: node6641
 Entering Link 1 = /apps/commercial/G16/g16.linda/l1.exe PID=     55206.
  
 Copyright (c) 1988,1990,1992,1993,1995,1998,2003,2009,2016,
            Gaussian, Inc.  All Rights Reserved.
  
 This is part of the Gaussian(R) 16 program.  It is based on
 the Gaussian(R) 09 system (copyright 2009, Gaussian, Inc.),
 the Gaussian(R) 03 system (copyright 2003, Gaussian, Inc.),
 the Gaussian(R) 98 system (copyright 1998, Gaussian, Inc.),
 the Gaussian(R) 94 system (copyright 1995, Gaussian, Inc.),
 the Gaussian 92(TM) system (copyright 1992, Gaussian, Inc.),
 the Gaussian 90(TM) system (copyright 1990, Gaussian, Inc.),
 the Gaussian 88(TM) system (copyright 1988, Gaussian, Inc.),
 the Gaussian 86(TM) system (copyright 1986, Carnegie Mellon
 University), and the Gaussian 82(TM) system (copyright 1983,
 Carnegie Mellon University). Gaussian is a federally registered
 trademark of Gaussian, Inc.
  
 This software contains proprietary and confidential information,
 including trade secrets, belonging to Gaussian, Inc.
  
 This software is provided under written license and may be
 used, copied, transmitted, or stored only in accord with that
 written license.
  
 The following legend is applicable only to US Government
 contracts under FAR:
  
                    RESTRICTED RIGHTS LEGEND
  
 Use, reproduction and disclosure by the US Government is
 subject to restrictions as set forth in subparagraphs (a)
 and (c) of the Commercial Computer Software - Restricted
 Rights clause in FAR 52.227-19.
  
 Gaussian, Inc.
 340 Quinnipiac St., Bldg. 40, Wallingford CT 06492
  
  
 ---------------------------------------------------------------
 Warning -- This program may not be used in any manner that
 competes with the business of Gaussian, Inc. or will provide
 assistance to any competitor of Gaussian, Inc.  The licensee
 of this program is prohibited from giving any competitor of
 Gaussian, Inc. access to this program.  By using this program,
 the user acknowledges that Gaussian, Inc. is engaged in the
 business of creating and licensing software in the field of
 computational chemistry and represents and warrants to the
 licensee that it is not a competitor of Gaussian, Inc. and that
 it will not use this program in any manner prohibited above.
 ---------------------------------------------------------------
  

 Cite this work as:
 Gaussian 16, Revision A.03,
 M. J. Frisch, G. W. Trucks, H. B. Schlegel, G. E. Scuseria, 
 M. A. Robb, J. R. Cheeseman, G. Scalmani, V. Barone, 
 G. A. Petersson, H. Nakatsuji, X. Li, M. Caricato, A. V. Marenich, 
 J. Bloino, B. G. Janesko, R. Gomperts, B. Mennucci, H. P. Hratchian, 
 J. V. Ortiz, A. F. Izmaylov, J. L. Sonnenberg, D. Williams-Young, 
 F. Ding, F. Lipparini, F. Egidi, J. Goings, B. Peng, A. Petrone, 
 T. Henderson, D. Ranasinghe, V. G. Zakrzewski, J. Gao, N. Rega, 
 G. Zheng, W. Liang, M. Hada, M. Ehara, K. Toyota, R. Fukuda, 
 J. Hasegawa, M. Ishida, T. Nakajima, Y. Honda, O. Kitao, H. Nakai, 
 T. Vreven, K. Throssell, J. A. Montgomery, Jr., J. E. Peralta, 
 F. Ogliaro, M. J. Bearpark, J. J. Heyd, E. N. Brothers, K. N. Kudin, 
 V. N. Staroverov, T. A. Keith, R. Kobayashi, J. Normand, 
 K. Raghavachari, A. P. Rendell, J. C. Burant, S. S. Iyengar, 
 J. Tomasi, M. Cossi, J. M. Millam, M. Klene, C. Adamo, R. Cammi, 
 J. W. Ochterski, R. L. Martin, K. Morokuma, O. Farkas, 
 J. B. Foresman, and D. J. Fox, Gaussian, Inc., Wallingford CT, 2016.
 
 ******************************************
 Gaussian 16:  ES64L-G16RevA.03 25-Dec-2016
                 4-Oct-2019 
 ******************************************
 %nprocshared=64
 Will use up to   64 processors via shared memory.
 %mem=64GB
 %chk=Zn_cat_opt_freq_sin.chk
 SetLPE:    new flags="-opt 'Tsnet.Node.lindarsharg: ssh'  -nodelist 'node6641' -env GAUSS_MDEF=8589934592 -env GAUSS_EXEDIR="/apps/commercial/G16/g16.linda""
 Will use up to    1 processors via Linda.
 ----------------------------------------------------------------------
 # opt=(calcall,tight,cartesian) freq cam-b3lyp/gen nosymm scf=(qc,maxc
 ycle=1024,vshift=100) pseudo=read
 ----------------------------------------------------------------------
 1/7=10,10=4,18=10,26=3,38=1/1,3;
 2/12=2,15=1,17=6,18=5,29=2,40=1/2;
 3/5=7,11=2,16=1,17=8,25=1,30=1,71=2,74=-40,140=1/1,2,3;
 4//1;
 5/5=2,7=1024,8=3,10=100,38=5/8;
 8/6=4,10=90,11=11/1;
 11/6=1,8=1,9=11,15=111,16=1,31=1/1,2,10;
 10/6=1,31=1/2;
 6/7=2,8=2,9=2,10=2,18=1,28=1/1;
 7/7=1,10=1,25=1,30=1/1,2,3,16;
 1/7=10,10=4,18=10,26=3/3(3);
 2/15=1,29=1/2;
 7/7=1,8=1,9=1,25=1,30=1,44=-1/16;
 99/12=1/99;
 2/15=1,29=1/2;
 3/5=7,6=1,11=2,16=1,17=8,25=1,30=1,71=2,74=-40,82=7,140=1/1,2,3;
 4/5=5,16=3,69=1/1;
 5/5=2,7=1024,8=3,10=100,38=5/8;
 8/6=4,10=90,11=11/1;
 11/6=1,8=1,9=11,15=111,16=1,31=1/1,2,10;
 10/6=1,31=1/2;
 7/7=1,10=1,25=1,30=1/1,2,3,16;
 1/7=10,10=4,18=10,26=3/3(-8);
 2/15=1,29=1/2;
 6/7=2,8=2,9=2,10=2,18=1,19=2,28=1/1;
 7/7=1,8=1,9=1,25=1,30=1,44=-1/16;
 99/12=1/99;
 -------------------
 Zn_cat_opt_freq_sin
 -------------------
 Symbolic Z-matrix:
 Charge =  0 Multiplicity = 1
 Li                   -1   -0.65617  -5.03839  -3.45744 
 N                    -1   -0.28279  -3.67558  -2.19468 
 C                    0    -1.0953   -3.95788  -1.13407 
 Cl                   0    -2.02584  -5.41807  -1.17729 
 N                    -1    2.32823   2.59905  -2.41943 
 C                    0     3.24912   1.61726  -2.25463 
 Cl                   0     4.83075   1.70247  -2.93414 
 N                    -1   -3.32748   2.07508   1.06573 
 C                    0    -3.87827   1.3854    0.03951 
 Cl                   0    -5.54116   1.52242  -0.39153 
 Zn                   0    -0.04307  -0.03601  -0.3734 
 N                    0    -0.12374  -2.03779  -0.6912 
 C                    0    -1.01091  -2.96215  -0.20814 
 Cl                   0    -1.80777  -2.79391   1.29167 
 N                    0    -1.74329   0.8083    0.10008 
 C                    0    -2.92692   0.60773  -0.5601 
 Cl                   0    -3.04092  -0.44081  -1.92699 
 N                    0     1.44499   0.95082  -1.16441 
 C                    0     2.72857   0.60513  -1.49471 
 Cl                   0     3.4427   -0.87168  -0.96396 
 C                    0     0.28094  -2.51233  -1.8767 
 H                    0     0.99691  -1.99696  -2.50129 
 C                    0    -2.06445   1.70747   1.06846 
 H                    0    -1.33172   2.08111   1.77219 
 C                    0     1.27624   2.16829  -1.7584 
 H                    0     0.34531   2.71546  -1.67994 
 

 GradGradGradGradGradGradGradGradGradGradGradGradGradGradGradGradGradGrad
 Berny optimization.
 Initialization pass.
 No Z-matrix variables, so optimization will use Cartesian coordinates.
 Trust Radius=3.00D-01 FncErr=1.00D-07 GrdErr=1.00D-06 EigMax=2.50D+02 EigMin=1.00D-04
 Number of steps in this run=     88 maximum allowed number of steps=    156.
 GradGradGradGradGradGradGradGradGradGradGradGradGradGradGradGradGradGrad

 ---------------------------------------------------------------------------------------------------
                            Z-MATRIX (ANGSTROMS AND DEGREES)
   CD    Cent   Atom    N1       Length/X        N2       Alpha/Y        N3        Beta/Z          J
 ---------------------------------------------------------------------------------------------------
      1      1  Li      -1  -0.656174         -5.038394         -3.457440
      2      2  N       -1  -0.282792         -3.675582         -2.194684
      3      3  C        0  -1.095303         -3.957877         -1.134074
      4      4  Cl       0  -2.025836         -5.418073         -1.177294
      5      5  N       -1   2.328228          2.599049         -2.419433
      6      6  C        0   3.249122          1.617260         -2.254632
      7      7  Cl       0   4.830753          1.702467         -2.934139
      8      8  N       -1  -3.327483          2.075083          1.065729
      9      9  C        0  -3.878272          1.385404          0.039514
     10     10  Cl       0  -5.541163          1.522415         -0.391530
     11     11  Zn       0  -0.043067         -0.036009         -0.373400
     12     12  N        0  -0.123743         -2.037791         -0.691204
     13     13  C        0  -1.010907         -2.962151         -0.208135
     14     14  Cl       0  -1.807770         -2.793913          1.291669
     15     15  N        0  -1.743289          0.808300          0.100083
     16     16  C        0  -2.926920          0.607730         -0.560102
     17     17  Cl       0  -3.040922         -0.440812         -1.926988
     18     18  N        0   1.444994          0.950816         -1.164405
     19     19  C        0   2.728566          0.605127         -1.494711
     20     20  Cl       0   3.442704         -0.871680         -0.963961
     21     21  C        0   0.280937         -2.512330         -1.876699
     22     22  H        0   0.996911         -1.996959         -2.501287
     23     23  C        0  -2.064453          1.707465          1.068458
     24     24  H        0  -1.331720          2.081106          1.772193
     25     25  C        0   1.276242          2.168288         -1.758400
     26     26  H        0   0.345309          2.715457         -1.679943
 ---------------------------------------------------------------------------------------------------
                         Z-Matrix orientation:                         
 ---------------------------------------------------------------------
 Center     Atomic      Atomic             Coordinates (Angstroms)
 Number     Number       Type             X           Y           Z
 ---------------------------------------------------------------------
      1          3           0       -0.656174   -5.038394   -3.457440
      2          7           0       -0.282792   -3.675582   -2.194684
      3          6           0       -1.095303   -3.957877   -1.134074
      4         17           0       -2.025836   -5.418073   -1.177294
      5          7           0        2.328228    2.599049   -2.419433
      6          6           0        3.249122    1.617260   -2.254632
      7         17           0        4.830753    1.702467   -2.934139
      8          7           0       -3.327483    2.075083    1.065729
      9          6           0       -3.878272    1.385404    0.039514
     10         17           0       -5.541163    1.522415   -0.391530
     11         30           0       -0.043067   -0.036009   -0.373400
     12          7           0       -0.123743   -2.037791   -0.691204
     13          6           0       -1.010907   -2.962151   -0.208135
     14         17           0       -1.807770   -2.793913    1.291669
     15          7           0       -1.743289    0.808300    0.100083
     16          6           0       -2.926920    0.607730   -0.560102
     17         17           0       -3.040922   -0.440812   -1.926988
     18          7           0        1.444994    0.950816   -1.164405
     19          6           0        2.728566    0.605127   -1.494711
     20         17           0        3.442704   -0.871680   -0.963961
     21          6           0        0.280937   -2.512330   -1.876699
     22          1           0        0.996911   -1.996959   -2.501287
     23          6           0       -2.064453    1.707465    1.068458
     24          1           0       -1.331720    2.081106    1.772193
     25          6           0        1.276242    2.168288   -1.758400
     26          1           0        0.345309    2.715457   -1.679943
 ---------------------------------------------------------------------
                    Distance matrix (angstroms):
                    1          2          3          4          5
     1  Li   0.000000
     2  N    1.895052   0.000000
     3  C    2.599689   1.365561   0.000000
     4  Cl   2.686856   2.666376   1.732031   0.000000
     5  N    8.265268   6.799921   7.507729   9.207336   0.000000
     6  C    7.809982   6.363347   7.156244   8.858993   1.356140
     7  Cl   8.707435   7.457784   8.390344  10.039990   2.707658
     8  N    8.842879   7.278089   6.798409   7.929239   6.663930
     9  C    7.992233   6.597931   6.137823   7.155378   6.785278
    10  Cl   8.735396   7.610585   7.095819   7.819547   8.197490
    11  Zn   5.908558   4.076890   4.131207   5.791738   4.093021
    12  N    4.115721   2.228925   2.196996   3.909034   5.522610
    13  C    3.872287   2.232826   1.362335   2.828587   6.853219
    14  Cl   5.377537   3.906092   2.783281   3.609646   7.743565
    15  N    6.929763   5.244445   4.965830   6.362330   5.111946
    16  C    6.740146   5.292451   4.952679   6.123984   5.919379
    17  Cl   5.400654   4.259422   4.096815   5.134741   6.189590
    18  N    6.748596   5.044827   5.527142   7.253246   2.252081
    19  C    6.867175   5.280408   5.964314   7.680106   2.234078
    20  Cl   6.354506   4.822434   5.490634   7.114782   3.925101
    21  C    3.123767   1.331187   2.129586   3.775409   5.532825
    22  H    3.591274   2.132937   3.176764   4.753312   4.785645
    23  C    8.244611   6.542141   6.155201   7.471157   5.679432
    24  H    8.859611   7.069358   6.706087   8.088199   5.588668
    25  C    7.652270   6.063971   6.598781   8.294232   1.314988
    26  H    8.017772   6.442426   6.848848   8.487007   2.119520
                    6          7          8          9         10
     6  C    0.000000
     7  Cl   1.723527   0.000000
     8  N    7.381472   9.093657   0.000000
     9  C    7.491102   9.208163   1.353567   0.000000
    10  Cl   8.986059  10.680539   2.707291   1.723304   0.000000
    11  Zn   4.136525   5.773543   4.161153   4.110926   5.714724
    12  N    5.213437   6.600554   5.501499   5.133099   6.489477
    13  C    6.580806   7.957057   5.688847   5.213861   6.377161
    14  Cl   7.589918   9.063381   5.105654   4.829240   5.949964
    15  N    5.578823   7.295483   2.246527   2.212435   3.895573
    16  C    6.483369   8.186330   2.226410   1.367255   2.774767
    17  Cl   6.626286   8.220174   3.920230   2.811290   3.530311
    18  N    2.210796   3.893623   5.386466   5.474984   7.051982
    19  C    1.368529   2.774040   6.737385   6.827370   8.393262
    20  Cl   2.810361   3.526261   7.657577   7.726453   9.315001
    21  C    5.099654   6.291543   6.536278   6.013586   7.237523
    22  H    4.265662   5.345228   6.928601   6.454724   7.719034
    23  C    6.267786   7.972746   1.315445   2.110068   3.775357
    24  H    6.116746   7.763311   2.117120   3.157706   4.765841
    25  C    2.107637   3.772784   5.401729   5.514927   6.983015
    26  H    3.157283   4.766379   4.630140   4.750180   6.142793
                   11         12         13         14         15
    11  Zn   0.000000
    12  N    2.028457   0.000000
    13  C    3.086476   1.369254   0.000000
    14  Cl   3.673236   2.709142   1.706665   0.000000
    15  N    1.956476   3.368872   3.853269   3.794730   0.000000
    16  C    2.960720   3.856653   4.066821   4.031467   1.370057
    17  Cl   3.400682   3.547878   3.665047   4.173428   2.711669
    18  N    1.952905   3.408317   4.717755   5.534959   3.432840
    19  C    3.057833   3.970681   5.325825   6.316307   4.752066
    20  Cl   3.632865   3.762148   4.977549   6.029123   5.554192
    21  C    2.914970   1.339534   2.157616   3.805331   4.362538
    22  H    3.074863   2.129303   3.197104   4.784129   4.705879
    23  C    3.033918   4.570526   4.954287   4.514212   1.359924
    24  H    3.278166   4.949025   5.427620   4.921721   2.141349
    25  C    2.918514   4.559602   5.827159   6.590712   3.797512
    26  H    3.070579   4.877600   6.020031   6.619621   3.341853
                   16         17         18         19         20
    16  C    0.000000
    17  Cl   1.726503   0.000000
    18  N    4.426796   4.758319   0.000000
    19  C    5.732192   5.879442   1.369730   0.000000
    20  Cl   6.551631   6.568902   2.711552   1.724137   0.000000
    21  C    4.664606   3.915158   3.722334   3.981877   3.677172
    22  H    5.094021   4.365262   3.267631   3.283698   3.100246
    23  C    2.146037   3.813303   4.227814   5.545991   6.411825
    24  H    3.186707   4.792221   4.196582   5.416373   6.245047
    25  C    4.640887   5.047151   1.365117   2.149942   3.816556
    26  H    4.050190   4.635690   2.142205   3.188686   4.793124
                   21         22         23         24         25
    21  C    0.000000
    22  H    1.080896   0.000000
    23  C    5.655217   5.986467   0.000000
    24  H    6.083973   6.349470   1.082473   0.000000
    25  C    4.786733   4.240187   4.400424   4.390234   0.000000
    26  H    5.231884   4.827635   3.791663   3.889996   1.082675
                   26
    26  H    0.000000
 Symmetry turned off by external request.
 Stoichiometry    C9H3Cl6LiN6Zn
 Framework group  C1[X(C9H3Cl6LiN6Zn)]
 Deg. of freedom    72
 Full point group                 C1      NOp   1
 Rotational constants (GHZ):           0.1783474           0.1121416           0.0787314
 General basis read from cards:  (5D, 7F)
 ======================================================================================================
                                       Pseudopotential Parameters
 ======================================================================================================
  Center     Atomic      Valence      Angular      Power
  Number     Number     Electrons     Momentum     of R      Exponent        Coefficient   SO-Coeffient
 ======================================================================================================
    1          3
                                   No pseudopotential on this center.
    2          7
                                   No pseudopotential on this center.
    3          6
                                   No pseudopotential on this center.
    4         17
                                   No pseudopotential on this center.
    5          7
                                   No pseudopotential on this center.
    6          6
                                   No pseudopotential on this center.
    7         17
                                   No pseudopotential on this center.
    8          7
                                   No pseudopotential on this center.
    9          6
                                   No pseudopotential on this center.
   10         17
                                   No pseudopotential on this center.
   11         30           12
                                      F and up 
                                                     1      386.7379660      -18.00000000    0.00000000
                                                     2       72.8587359     -124.35274030    0.00000000
                                                     2       15.9066170      -30.66018220    0.00000000
                                                     2        4.3502340      -10.63589890    0.00000000
                                                     2        1.2842199       -0.76836230    0.00000000
                                      S - F
                                                     0       19.0867858        3.00000000    0.00000000
                                                     1        5.0231080       22.52342250    0.00000000
                                                     2        1.2701744       48.44659420    0.00000000
                                                     2        1.0671287      -44.55601190    0.00000000
                                                     2        0.9264190       12.99839580    0.00000000
                                      P - F
                                                     0       43.4927750        5.00000000    0.00000000
                                                     1       20.8692669       20.74355890    0.00000000
                                                     2       21.7118378       90.30271580    0.00000000
                                                     2        6.3616915       74.66103160    0.00000000
                                                     2        1.2291195        9.88944240    0.00000000
                                      D - F
                                                     2       13.5851800       -4.84903590    0.00000000
                                                     2        9.8373050        3.69133790    0.00000000
                                                     2        0.8373113       -0.50373190    0.00000000
   12          7
                                   No pseudopotential on this center.
   13          6
                                   No pseudopotential on this center.
   14         17
                                   No pseudopotential on this center.
   15          7
                                   No pseudopotential on this center.
   16          6
                                   No pseudopotential on this center.
   17         17
                                   No pseudopotential on this center.
   18          7
                                   No pseudopotential on this center.
   19          6
                                   No pseudopotential on this center.
   20         17
                                   No pseudopotential on this center.
   21          6
                                   No pseudopotential on this center.
   22          1
                                   No pseudopotential on this center.
   23          6
                                   No pseudopotential on this center.
   24          1
                                   No pseudopotential on this center.
   25          6
                                   No pseudopotential on this center.
   26          1
                                   No pseudopotential on this center.
 ======================================================================================================
   365 basis functions,   820 primitive gaussians,   389 cartesian basis functions
   108 alpha electrons      108 beta electrons
       nuclear repulsion energy      2787.8046142557 Hartrees.
 NAtoms=   26 NActive=   26 NUniq=   26 SFac= 1.00D+00 NAtFMM=   60 NAOKFM=F Big=F
 Integral buffers will be    131072 words long.
 Raffenetti 2 integral format.
 Two-electron integral symmetry is turned off.
 One-electron integrals computed using PRISM.
   1 Symmetry operations used in ECPInt.
 ECPInt:  NShTT=    5995 NPrTT=   46558 LenC2=    4914 LenP2D=   19912.
 LDataN:  DoStor=T MaxTD1= 5 Len=  102
 NBasis=   365 RedAO= T EigKep=  1.36D-03  NBF=   365
 NBsUse=   365 1.00D-06 EigRej= -1.00D+00 NBFU=   365
 ExpMin= 3.51D-02 ExpMax= 2.52D+04 ExpMxC= 3.78D+03 IAcc=3 IRadAn=         5 AccDes= 0.00D+00
 Harris functional with IExCor=20419 and IRadAn=       5 diagonalized for initial guess.
 HarFok:  IExCor=20419 AccDes= 0.00D+00 IRadAn=         5 IDoV= 1 UseB2=F ITyADJ=14
 ICtDFT=  3500011 ScaDFX=  1.000000  1.000000  1.000000  1.000000
 FoFCou: FMM=F IPFlag=           0 FMFlag=      100000 FMFlg1=           0
         NFxFlg=           0 DoJE=T BraDBF=F KetDBF=T FulRan=T
         wScrn=  0.000000 ICntrl=       500 IOpCl=  0 I1Cent=   200000004 NGrid=           0
         NMat0=    1 NMatS0=      1 NMatT0=    0 NMatD0=    1 NMtDS0=    0 NMtDT0=    0
 Symmetry not used in FoFCou.
 Gradient too large for Newton-Raphson -- use scaled steepest descent instead.
     Accept linear search using points  3 and  4.
 Gradient too large for Newton-Raphson -- use scaled steepest descent instead.
     Accept linear search using points  2 and  3.
 Gradient too large for Newton-Raphson -- use scaled steepest descent instead.
 Gradient too large for Newton-Raphson -- use scaled steepest descent instead.
     Accept linear search using points  1 and  2.
 Gradient too large for Newton-Raphson -- use scaled steepest descent instead.
     Accept linear search using points  2 and  3.
 LinEq1:  Iter=  0 NonCon=     1 RMS=5.74D-05 Max=1.93D-03 NDo=     1
 AX will form     1 AO Fock derivatives at one time.
 LinEq1:  Iter=  1 NonCon=     1 RMS=5.70D-05 Max=2.90D-03 NDo=     1
 LinEq1:  Iter=  2 NonCon=     1 RMS=6.17D-06 Max=1.89D-04 NDo=     1
 LinEq1:  Iter=  3 NonCon=     1 RMS=4.60D-06 Max=2.44D-04 NDo=     1
 LinEq1:  Iter=  4 NonCon=     1 RMS=1.33D-06 Max=3.04D-05 NDo=     1
 LinEq1:  Iter=  5 NonCon=     1 RMS=7.31D-07 Max=2.55D-05 NDo=     1
 LinEq1:  Iter=  6 NonCon=     1 RMS=3.65D-07 Max=1.13D-05 NDo=     1
 LinEq1:  Iter=  7 NonCon=     1 RMS=1.96D-07 Max=8.95D-06 NDo=     1
 LinEq1:  Iter=  8 NonCon=     1 RMS=9.42D-08 Max=2.19D-06 NDo=     1
 LinEq1:  Iter=  9 NonCon=     1 RMS=4.92D-08 Max=1.80D-06 NDo=     1
 LinEq1:  Iter= 10 NonCon=     1 RMS=2.47D-08 Max=6.92D-07 NDo=     1
 LinEq1:  Iter= 11 NonCon=     0 RMS=7.71D-09 Max=1.50D-07 NDo=     1
 Linear equations converged to 2.356D-08 2.356D-07 after    11 iterations.
     Minimum is close to point  2 DX=  4.07D-04 DF= -1.14D-11 DXR=  4.07D-04 DFR=  1.62D-07 which will be used.
 LinEq1:  Iter=  0 NonCon=     1 RMS=9.59D-08 Max=3.22D-06 NDo=     1
 LinEq1:  Iter=  1 NonCon=     1 RMS=5.59D-08 Max=1.99D-06 NDo=     1
 LinEq1:  Iter=  2 NonCon=     1 RMS=2.06D-08 Max=6.95D-07 NDo=     1
 LinEq1:  Iter=  3 NonCon=     1 RMS=1.30D-08 Max=6.44D-07 NDo=     1
 LinEq1:  Iter=  4 NonCon=     1 RMS=7.86D-09 Max=2.90D-07 NDo=     1
 LinEq1:  Iter=  5 NonCon=     1 RMS=2.64D-09 Max=7.57D-08 NDo=     1
 LinEq1:  Iter=  6 NonCon=     1 RMS=1.74D-09 Max=7.18D-08 NDo=     1
 LinEq1:  Iter=  7 NonCon=     1 RMS=8.25D-10 Max=2.48D-08 NDo=     1
 LinEq1:  Iter=  8 NonCon=     1 RMS=5.14D-10 Max=1.72D-08 NDo=     1
 LinEq1:  Iter=  9 NonCon=     1 RMS=1.82D-10 Max=5.66D-09 NDo=     1
 LinEq1:  Iter= 10 NonCon=     1 RMS=1.00D-10 Max=2.21D-09 NDo=     1
 LinEq1:  Iter= 11 NonCon=     0 RMS=3.25D-11 Max=7.06D-10 NDo=     1
 Linear equations converged to 1.380D-10 1.380D-09 after    11 iterations.
 SCF Done:  E(RCAM-B3LYP) =  -3507.23256951     a.u. after    8 cycles
            Convg  =    0.2810D-09                    41 Fock formations.
              S**2 =  0.0000                  -V/T =  1.9887
 DoSCS=F DFT=T ScalE2(SS,OS)=  1.000000  1.000000
 Range of M.O.s used for correlation:     1   365
 NBasis=   365 NAE=   108 NBE=   108 NFC=     0 NFV=     0
 NROrb=    365 NOA=   108 NOB=   108 NVA=   257 NVB=   257
   1 Symmetry operations used in ECPInt.
 ECPInt:  NShTT=    5995 NPrTT=   46558 LenC2=    4914 LenP2D=   19912.
 LDataN:  DoStor=T MaxTD1= 6 Len=  172
 Number of processors reduced to  36 by ecpmxn.
 Symmetrizing basis deriv contribution to polar:
 IMax=3 JMax=2 DiffMx= 0.00D+00
 G2DrvN: will do    27 centers at a time, making    1 passes.
 Calling FoFCou, ICntrl=  3107 FMM=F I1Cent=   0 AccDes= 0.00D+00.
 End of G2Drv F.D. properties file   721 does not exist.
 End of G2Drv F.D. properties file   722 does not exist.
 End of G2Drv F.D. properties file   788 does not exist.
          IDoAtm=00110110111111111111111111
          Differentiating once with respect to electric field.
                with respect to dipole field.
          Differentiating once with respect to nuclear coordinates.
 CalDSu exits because no D1Ps are significant.
          There are    69 degrees of freedom in the 1st order CPHF.  IDoFFX=6 NUNeed=     3.
     69 vectors produced by pass  0 Test12= 4.02D-14 1.45D-09 XBig12= 1.12D+02 2.47D+00.
 AX will form    69 AO Fock derivatives at one time.
     69 vectors produced by pass  1 Test12= 4.02D-14 1.45D-09 XBig12= 1.59D+01 6.56D-01.
     69 vectors produced by pass  2 Test12= 4.02D-14 1.45D-09 XBig12= 4.15D-01 8.61D-02.
     69 vectors produced by pass  3 Test12= 4.02D-14 1.45D-09 XBig12= 1.55D-02 1.35D-02.
     69 vectors produced by pass  4 Test12= 4.02D-14 1.45D-09 XBig12= 1.86D-04 1.82D-03.
     69 vectors produced by pass  5 Test12= 4.02D-14 1.45D-09 XBig12= 1.15D-06 1.11D-04.
     69 vectors produced by pass  6 Test12= 4.02D-14 1.45D-09 XBig12= 5.92D-09 7.03D-06.
     44 vectors produced by pass  7 Test12= 4.02D-14 1.45D-09 XBig12= 2.91D-11 3.62D-07.
      3 vectors produced by pass  8 Test12= 4.02D-14 1.45D-09 XBig12= 1.43D-13 2.78D-08.
      3 vectors produced by pass  9 Test12= 4.02D-14 1.45D-09 XBig12= 6.93D-16 2.24D-09.
 InvSVY:  IOpt=1 It=  1 EMax= 1.07D-14
 Solved reduced A of dimension   533 with    69 vectors.
 Isotropic polarizability for W=    0.000000      198.26 Bohr**3.
 End of Minotr F.D. properties file   721 does not exist.
 End of Minotr F.D. properties file   722 does not exist.
 End of Minotr F.D. properties file   788 does not exist.

 **********************************************************************

            Population analysis using the SCF density.

 **********************************************************************

 Alpha  occ. eigenvalues -- -101.67527-101.64119-101.61292-101.61157-101.58406
 Alpha  occ. eigenvalues -- -101.58157 -14.46787 -14.46347 -14.42429 -14.42128
 Alpha  occ. eigenvalues --  -14.37528 -14.37228 -10.37776 -10.37668 -10.36116
 Alpha  occ. eigenvalues --  -10.32169 -10.31976 -10.30958 -10.30660 -10.29556
 Alpha  occ. eigenvalues --  -10.29360  -9.60740  -9.57316  -9.54485  -9.54349
 Alpha  occ. eigenvalues --   -9.51672  -9.51424  -7.37144  -7.36242  -7.36121
 Alpha  occ. eigenvalues --   -7.33801  -7.32723  -7.32711  -7.30913  -7.30783
 Alpha  occ. eigenvalues --   -7.29941  -7.29905  -7.29788  -7.29778  -7.28115
 Alpha  occ. eigenvalues --   -7.27868  -7.27103  -7.27083  -7.26853  -7.26836
 Alpha  occ. eigenvalues --   -2.17614  -1.15367  -1.08817  -1.08646  -1.02640
 Alpha  occ. eigenvalues --   -1.00187  -0.96000  -0.95922  -0.95399  -0.94207
 Alpha  occ. eigenvalues --   -0.94009  -0.89269  -0.89046  -0.84139  -0.77873
 Alpha  occ. eigenvalues --   -0.77649  -0.73289  -0.72524  -0.72409  -0.71931
 Alpha  occ. eigenvalues --   -0.71819  -0.70717  -0.68896  -0.64934  -0.64821
 Alpha  occ. eigenvalues --   -0.63160  -0.62435  -0.62170  -0.57677  -0.57062
 Alpha  occ. eigenvalues --   -0.56582  -0.55164  -0.53520  -0.50921  -0.50730
 Alpha  occ. eigenvalues --   -0.49924  -0.49256  -0.49162  -0.47494  -0.46963
 Alpha  occ. eigenvalues --   -0.46840  -0.46548  -0.45697  -0.44941  -0.43054
 Alpha  occ. eigenvalues --   -0.42847  -0.41264  -0.41065  -0.41009  -0.39656
 Alpha  occ. eigenvalues --   -0.39502  -0.39334  -0.39055  -0.37718  -0.35878
 Alpha  occ. eigenvalues --   -0.35578  -0.32482  -0.32145  -0.31904  -0.31595
 Alpha  occ. eigenvalues --   -0.31204  -0.25881  -0.25651
 Alpha virt. eigenvalues --   -0.06902  -0.01318  -0.00469   0.01155   0.03311
 Alpha virt. eigenvalues --    0.03473   0.03862   0.05304   0.06963   0.07647
 Alpha virt. eigenvalues --    0.08529   0.09104   0.09294   0.09515   0.09996
 Alpha virt. eigenvalues --    0.10748   0.11583   0.12069   0.12578   0.13151
 Alpha virt. eigenvalues --    0.13364   0.13512   0.13831   0.17444   0.18501
 Alpha virt. eigenvalues --    0.21809   0.22604   0.22965   0.23494   0.25126
 Alpha virt. eigenvalues --    0.26508   0.27477   0.29871   0.30293   0.31891
 Alpha virt. eigenvalues --    0.32258   0.33780   0.35405   0.37984   0.38401
 Alpha virt. eigenvalues --    0.38730   0.39653   0.39912   0.40709   0.41357
 Alpha virt. eigenvalues --    0.41790   0.42127   0.42822   0.44416   0.44733
 Alpha virt. eigenvalues --    0.45758   0.46219   0.47249   0.47542   0.48065
 Alpha virt. eigenvalues --    0.48532   0.48814   0.49567   0.49776   0.50736
 Alpha virt. eigenvalues --    0.51103   0.51550   0.52780   0.53214   0.53829
 Alpha virt. eigenvalues --    0.54791   0.55575   0.56417   0.58006   0.59650
 Alpha virt. eigenvalues --    0.60694   0.61867   0.62693   0.63176   0.64007
 Alpha virt. eigenvalues --    0.64185   0.65061   0.65790   0.66568   0.67040
 Alpha virt. eigenvalues --    0.67633   0.68590   0.69454   0.69865   0.71804
 Alpha virt. eigenvalues --    0.72153   0.72324   0.73823   0.74422   0.74838
 Alpha virt. eigenvalues --    0.75657   0.75926   0.76739   0.79062   0.81637
 Alpha virt. eigenvalues --    0.82383   0.83262   0.83914   0.84516   0.85864
 Alpha virt. eigenvalues --    0.87077   0.87177   0.88019   0.88525   0.89123
 Alpha virt. eigenvalues --    0.89230   0.89401   0.89912   0.90190   0.90469
 Alpha virt. eigenvalues --    0.91244   0.91597   0.92077   0.92497   0.93070
 Alpha virt. eigenvalues --    0.93667   0.94180   0.94428   0.94738   0.94933
 Alpha virt. eigenvalues --    0.95675   0.96586   0.97401   0.97639   0.98480
 Alpha virt. eigenvalues --    0.99204   0.99444   1.00100   1.00898   1.02012
 Alpha virt. eigenvalues --    1.02899   1.04018   1.05046   1.05710   1.06536
 Alpha virt. eigenvalues --    1.07173   1.07802   1.08149   1.08537   1.10060
 Alpha virt. eigenvalues --    1.10635   1.10914   1.12221   1.12995   1.14857
 Alpha virt. eigenvalues --    1.17870   1.18164   1.19007   1.19620   1.20060
 Alpha virt. eigenvalues --    1.23494   1.26093   1.30547   1.31784   1.32572
 Alpha virt. eigenvalues --    1.34784   1.36687   1.37551   1.38346   1.39645
 Alpha virt. eigenvalues --    1.43248   1.43687   1.44258   1.44900   1.46048
 Alpha virt. eigenvalues --    1.46768   1.47623   1.47885   1.49582   1.50045
 Alpha virt. eigenvalues --    1.53957   1.54717   1.59371   1.60204   1.60675
 Alpha virt. eigenvalues --    1.62593   1.63681   1.64606   1.66077   1.66330
 Alpha virt. eigenvalues --    1.67651   1.68182   1.68778   1.69806   1.72007
 Alpha virt. eigenvalues --    1.75390   1.77038   1.79775   1.90087   1.91008
 Alpha virt. eigenvalues --    1.92644   1.95264   1.96436   1.99619   2.03323
 Alpha virt. eigenvalues --    2.04291   2.05723   2.06792   2.07568   2.10296
 Alpha virt. eigenvalues --    2.11723   2.14376   2.15844   2.16461   2.17788
 Alpha virt. eigenvalues --    2.19436   2.23790   2.23945   2.27050   2.28909
 Alpha virt. eigenvalues --    2.31133   2.31640   2.32967   2.33337   2.33496
 Alpha virt. eigenvalues --    2.34156   2.35986   2.36386   2.38249   2.38811
 Alpha virt. eigenvalues --    2.41283   2.46890   2.47560   2.60334   2.61628
 Alpha virt. eigenvalues --    2.63003   2.63868   2.64957   2.65599   2.66717
 Alpha virt. eigenvalues --    2.67585   2.68409   2.69057   2.69919   2.70252
 Alpha virt. eigenvalues --    2.71034   2.74055   2.75020   2.82174   2.83844
 Alpha virt. eigenvalues --    2.87311   2.87684   2.88123   2.89497   2.89903
 Alpha virt. eigenvalues --    2.94214   2.95616   2.96370   3.03542   3.03735
 Alpha virt. eigenvalues --    3.16358   3.22746   3.23202   3.55978   3.60134
 Alpha virt. eigenvalues --    3.60379   8.82701
          Condensed to atoms (all electrons):
               1          2          3          4          5          6
     1  Li   2.118036   0.212335  -0.035449   0.075955  -0.000001   0.000011
     2  N    0.212335   6.695204   0.338316  -0.080368  -0.000000  -0.000000
     3  C   -0.035449   0.338316   5.098731   0.234237   0.000000  -0.000000
     4  Cl   0.075955  -0.080368   0.234237  16.738720   0.000000   0.000000
     5  N   -0.000001  -0.000000   0.000000   0.000000   6.566348   0.463385
     6  C    0.000011  -0.000000  -0.000000   0.000000   0.463385   4.937922
     7  Cl  -0.000001   0.000000   0.000000   0.000000  -0.053475   0.263113
     8  N   -0.000009   0.000000  -0.000000   0.000000  -0.000000  -0.000000
     9  C    0.000010  -0.000000   0.000000  -0.000000  -0.000000   0.000000
    10  Cl   0.000006   0.000000  -0.000000   0.000000   0.000000  -0.000000
    11  Zn  -0.000316   0.004277   0.004318  -0.000090   0.005447   0.001136
    12  N    0.002475  -0.072692  -0.083541   0.003365  -0.000001  -0.000004
    13  C    0.008191  -0.069824   0.545264  -0.055217  -0.000000   0.000000
    14  Cl  -0.000031   0.002977  -0.074360   0.006634  -0.000000  -0.000000
    15  N   -0.000100   0.000001  -0.000018   0.000000   0.000014   0.000000
    16  C   -0.000320   0.000005  -0.000020  -0.000001  -0.000000   0.000000
    17  Cl   0.003896  -0.000254  -0.000374  -0.000017   0.000000   0.000001
    18  N   -0.000309   0.000017   0.000002   0.000000  -0.091698  -0.083533
    19  C   -0.000027   0.000009  -0.000001  -0.000000  -0.072882   0.565933
    20  Cl   0.000667   0.000002  -0.000018   0.000000   0.004475  -0.059511
    21  C   -0.009013   0.499845  -0.095383   0.006564  -0.000001  -0.000009
    22  H    0.000562  -0.034464   0.004348  -0.000146  -0.000012  -0.000012
    23  C   -0.000008   0.000000   0.000000   0.000000   0.000002  -0.000000
    24  H    0.000001  -0.000000  -0.000000  -0.000000   0.000000   0.000000
    25  C   -0.000033   0.000000   0.000000  -0.000000   0.570582  -0.107831
    26  H    0.000002   0.000000   0.000000  -0.000000  -0.034694   0.005596
               7          8          9         10         11         12
     1  Li  -0.000001  -0.000009   0.000010   0.000006  -0.000316   0.002475
     2  N    0.000000   0.000000  -0.000000   0.000000   0.004277  -0.072692
     3  C    0.000000  -0.000000   0.000000  -0.000000   0.004318  -0.083541
     4  Cl   0.000000   0.000000  -0.000000   0.000000  -0.000090   0.003365
     5  N   -0.053475  -0.000000  -0.000000   0.000000   0.005447  -0.000001
     6  C    0.263113  -0.000000   0.000000  -0.000000   0.001136  -0.000004
     7  Cl  16.860253   0.000000  -0.000000  -0.000000  -0.000256   0.000000
     8  N    0.000000   6.557176   0.467327  -0.053490   0.004918  -0.000001
     9  C   -0.000000   0.467327   4.925930   0.264468   0.001360  -0.000010
    10  Cl  -0.000000  -0.053490   0.264468  16.860322  -0.000482   0.000000
    11  Zn  -0.000256   0.004918   0.001360  -0.000482  10.373074   0.173911
    12  N    0.000000  -0.000001  -0.000010   0.000000   0.173911   6.815229
    13  C   -0.000000  -0.000001  -0.000006  -0.000000  -0.024266   0.399919
    14  Cl  -0.000000  -0.000013  -0.000014  -0.000001   0.005981  -0.059533
    15  N    0.000000  -0.092836  -0.080082   0.003594   0.225830  -0.006516
    16  C   -0.000000  -0.073972   0.563382  -0.078081  -0.023111  -0.000764
    17  Cl  -0.000000   0.004520  -0.057960   0.007575   0.012027  -0.003511
    18  N    0.003653   0.000001   0.000004   0.000000   0.234900  -0.006589
    19  C   -0.076987   0.000000  -0.000000  -0.000000  -0.022695  -0.000667
    20  Cl   0.007714  -0.000000  -0.000000   0.000000   0.009054  -0.001104
    21  C    0.000000  -0.000000  -0.000001   0.000000  -0.016394   0.452902
    22  H   -0.000005  -0.000000  -0.000000  -0.000000  -0.004168  -0.040333
    23  C    0.000000   0.578301  -0.107588   0.005853  -0.010494   0.000038
    24  H   -0.000000  -0.036270   0.005837  -0.000126   0.000688  -0.000004
    25  C    0.005732  -0.000003  -0.000003  -0.000000  -0.014194   0.000143
    26  H   -0.000123  -0.000006  -0.000024   0.000000  -0.000011  -0.000002
              13         14         15         16         17         18
     1  Li   0.008191  -0.000031  -0.000100  -0.000320   0.003896  -0.000309
     2  N   -0.069824   0.002977   0.000001   0.000005  -0.000254   0.000017
     3  C    0.545264  -0.074360  -0.000018  -0.000020  -0.000374   0.000002
     4  Cl  -0.055217   0.006634   0.000000  -0.000001  -0.000017   0.000000
     5  N   -0.000000  -0.000000   0.000014  -0.000000   0.000000  -0.091698
     6  C    0.000000  -0.000000   0.000000   0.000000   0.000001  -0.083533
     7  Cl  -0.000000  -0.000000   0.000000  -0.000000  -0.000000   0.003653
     8  N   -0.000001  -0.000013  -0.092836  -0.073972   0.004520   0.000001
     9  C   -0.000006  -0.000014  -0.080082   0.563382  -0.057960   0.000004
    10  Cl  -0.000000  -0.000001   0.003594  -0.078081   0.007575   0.000000
    11  Zn  -0.024266   0.005981   0.225830  -0.023111   0.012027   0.234900
    12  N    0.399919  -0.059533  -0.006516  -0.000764  -0.003511  -0.006589
    13  C    4.921544   0.290650  -0.000838   0.000063   0.001493   0.000090
    14  Cl   0.290650  16.749242  -0.000623   0.001077  -0.000818   0.000002
    15  N   -0.000838  -0.000623   6.917908   0.380417  -0.066572  -0.007301
    16  C    0.000063   0.001077   0.380417   5.050104   0.231258   0.000147
    17  Cl   0.001493  -0.000818  -0.066572   0.231258  16.879249  -0.000200
    18  N    0.000090   0.000002  -0.007301   0.000147  -0.000200   6.932029
    19  C    0.000002   0.000000   0.000103  -0.000002  -0.000007   0.382334
    20  Cl  -0.000002  -0.000003   0.000005   0.000000  -0.000001  -0.064722
    21  C   -0.090188   0.005099   0.000035  -0.000076   0.001005  -0.000121
    22  H    0.004586  -0.000085  -0.000005  -0.000002  -0.000135   0.000867
    23  C   -0.000011  -0.000138   0.402108  -0.103229   0.006389  -0.000119
    24  H   -0.000000  -0.000019  -0.055490   0.004562  -0.000093  -0.000061
    25  C   -0.000001   0.000000  -0.000120  -0.000015  -0.000055   0.384573
    26  H   -0.000000  -0.000000   0.001062   0.000065  -0.000045  -0.055470
              19         20         21         22         23         24
     1  Li  -0.000027   0.000667  -0.009013   0.000562  -0.000008   0.000001
     2  N    0.000009   0.000002   0.499845  -0.034464   0.000000  -0.000000
     3  C   -0.000001  -0.000018  -0.095383   0.004348   0.000000  -0.000000
     4  Cl  -0.000000   0.000000   0.006564  -0.000146   0.000000  -0.000000
     5  N   -0.072882   0.004475  -0.000001  -0.000012   0.000002   0.000000
     6  C    0.565933  -0.059511  -0.000009  -0.000012  -0.000000   0.000000
     7  Cl  -0.076987   0.007714   0.000000  -0.000005   0.000000  -0.000000
     8  N    0.000000  -0.000000  -0.000000  -0.000000   0.578301  -0.036270
     9  C   -0.000000  -0.000000  -0.000001  -0.000000  -0.107588   0.005837
    10  Cl  -0.000000   0.000000   0.000000  -0.000000   0.005853  -0.000126
    11  Zn  -0.022695   0.009054  -0.016394  -0.004168  -0.010494   0.000688
    12  N   -0.000667  -0.001104   0.452902  -0.040333   0.000038  -0.000004
    13  C    0.000002  -0.000002  -0.090188   0.004586  -0.000011  -0.000000
    14  Cl   0.000000  -0.000003   0.005099  -0.000085  -0.000138  -0.000019
    15  N    0.000103   0.000005   0.000035  -0.000005   0.402108  -0.055490
    16  C   -0.000002   0.000000  -0.000076  -0.000002  -0.103229   0.004562
    17  Cl  -0.000007  -0.000001   0.001005  -0.000135   0.006389  -0.000093
    18  N    0.382334  -0.064722  -0.000121   0.000867  -0.000119  -0.000061
    19  C    5.049203   0.234356  -0.000368   0.002345  -0.000005  -0.000001
    20  Cl   0.234356  16.873937  -0.000609   0.000860   0.000000   0.000000
    21  C   -0.000368  -0.000609   4.616244   0.393721  -0.000002  -0.000000
    22  H    0.002345   0.000860   0.393721   0.509026  -0.000000   0.000000
    23  C   -0.000005   0.000000  -0.000002  -0.000000   4.658735   0.394325
    24  H   -0.000001   0.000000  -0.000000   0.000000   0.394325   0.574385
    25  C   -0.102268   0.006009  -0.000050  -0.000126   0.000037  -0.000028
    26  H    0.004795  -0.000082  -0.000004   0.000001   0.000235  -0.000008
              25         26
     1  Li  -0.000033   0.000002
     2  N    0.000000   0.000000
     3  C    0.000000   0.000000
     4  Cl  -0.000000  -0.000000
     5  N    0.570582  -0.034694
     6  C   -0.107831   0.005596
     7  Cl   0.005732  -0.000123
     8  N   -0.000003  -0.000006
     9  C   -0.000003  -0.000024
    10  Cl  -0.000000   0.000000
    11  Zn  -0.014194  -0.000011
    12  N    0.000143  -0.000002
    13  C   -0.000001  -0.000000
    14  Cl   0.000000  -0.000000
    15  N   -0.000120   0.001062
    16  C   -0.000015   0.000065
    17  Cl  -0.000055  -0.000045
    18  N    0.384573  -0.055470
    19  C   -0.102268   0.004795
    20  Cl   0.006009  -0.000082
    21  C   -0.000050  -0.000004
    22  H   -0.000126   0.000001
    23  C    0.000037   0.000235
    24  H   -0.000028  -0.000008
    25  C    4.676571   0.395345
    26  H    0.395345   0.555385
 Mulliken charges:
               1
     1  Li   0.623473
     2  N   -0.495387
     3  C    0.063948
     4  Cl   0.070364
     5  N   -0.357488
     6  C    0.013801
     7  Cl  -0.009618
     8  N   -0.355644
     9  C    0.017371
    10  Cl  -0.009637
    11  Zn   1.059556
    12  N   -0.572709
    13  C    0.068549
    14  Cl   0.073976
    15  N   -0.620579
    16  C    0.048513
    17  Cl  -0.017371
    18  N   -0.628495
    19  C    0.036831
    20  Cl  -0.011028
    21  C    0.236805
    22  H    0.163178
    23  C    0.175572
    24  H    0.112302
    25  C    0.185735
    26  H    0.127983
 Sum of Mulliken charges =   0.00000
 Mulliken charges with hydrogens summed into heavy atoms:
               1
     1  Li   0.623473
     2  N   -0.495387
     3  C    0.063948
     4  Cl   0.070364
     5  N   -0.357488
     6  C    0.013801
     7  Cl  -0.009618
     8  N   -0.355644
     9  C    0.017371
    10  Cl  -0.009637
    11  Zn   1.059556
    12  N   -0.572709
    13  C    0.068549
    14  Cl   0.073976
    15  N   -0.620579
    16  C    0.048513
    17  Cl  -0.017371
    18  N   -0.628495
    19  C    0.036831
    20  Cl  -0.011028
    21  C    0.399983
    23  C    0.287874
    25  C    0.313718
 Electronic spatial extent (au):  <R**2>=          13523.0154
 Charge=              0.0000 electrons
 Dipole moment (field-independent basis, Debye):
    X=              0.0917    Y=            -16.7206    Z=             -5.6935  Tot=             17.6636
 Quadrupole moment (field-independent basis, Debye-Ang):
   XX=           -220.4258   YY=           -122.1270   ZZ=           -144.4572
   XY=              8.8849   XZ=             20.7870   YZ=             57.6258
 Traceless Quadrupole moment (field-independent basis, Debye-Ang):
   XX=            -58.0891   YY=             40.2096   ZZ=             17.8795
   XY=              8.8849   XZ=             20.7870   YZ=             57.6258
 Octapole moment (field-independent basis, Debye-Ang**2):
  XXX=            294.2691  YYY=           -135.2499  ZZZ=            370.0860  XYY=             31.8381
  XXY=              2.6203  XXZ=            194.1655  XZZ=             32.9570  YZZ=           -146.2105
  YYZ=            -87.3915  XYZ=              8.6165
 Hexadecapole moment (field-independent basis, Debye-Ang**3):
 XXXX=          -9484.5104 YYYY=          -4317.0588 ZZZZ=          -2096.7847 XXXY=           -530.5586
 XXXZ=            927.4777 YYYX=           -389.8018 YYYZ=           1353.1343 ZZZX=            932.5332
 ZZZY=            694.9484 XXYY=          -2637.5124 XXZZ=          -2025.7536 YYZZ=           -480.4388
 XXYZ=             -3.3833 YYXZ=            545.2096 ZZXY=           -133.9051
 N-N= 2.787804614256D+03 E-N=-1.396074436363D+04  KE= 3.547180917742D+03
  Exact polarizability: 226.897   5.921 201.873 -30.198  13.811 166.015
 Approx polarizability: 252.608   1.895 234.863 -27.342  17.851 220.027
   1 Symmetry operations used in ECPInt.
 ECPInt:  NShTT=    5995 NPrTT=   46558 LenC2=    4914 LenP2D=   19912.
 LDataN:  DoStor=T MaxTD1= 7 Len=  274
 Calling FoFJK, ICntrl=    100127 FMM=F ISym2X=0 I1Cent= 0 IOpClX= 0 NMat=1 NMatS=1 NMatT=0.
 -------------------------------------------------------------------
 Center     Atomic                   Forces (Hartrees/Bohr)
 Number     Number              X              Y              Z
 -------------------------------------------------------------------
      1        3          -0.000000000   -0.000000000   -0.000000000
      2        7          -0.000000000   -0.000000000   -0.000000000
      3        6           0.000000191   -0.000000166   -0.000000444
      4       17          -0.000000060   -0.000000028    0.000000037
      5        7          -0.000000000   -0.000000000   -0.000000000
      6        6           0.000000026    0.000000433   -0.000000358
      7       17          -0.000000104    0.000000041    0.000000050
      8        7          -0.000000000   -0.000000000   -0.000000000
      9        6          -0.000000711   -0.000000031   -0.000000452
     10       17           0.000000352   -0.000000032    0.000000102
     11       30           0.000000064    0.000000073   -0.000000020
     12        7          -0.000000107   -0.000000213   -0.000000128
     13        6           0.000000047    0.000000287    0.000000396
     14       17           0.000000080   -0.000000004   -0.000000161
     15        7          -0.000000744    0.000000028   -0.000000155
     16        6           0.000000717    0.000000141    0.000000444
     17       17          -0.000000054    0.000000029    0.000000028
     18        7          -0.000000054    0.000000004    0.000000074
     19        6          -0.000000399   -0.000000520    0.000000431
     20       17          -0.000000049    0.000000191   -0.000000071
     21        6          -0.000000018    0.000000000    0.000000108
     22        1           0.000000001    0.000000009    0.000000027
     23        6           0.000000575   -0.000000167   -0.000000186
     24        1           0.000000051    0.000000056    0.000000097
     25        6           0.000001042   -0.000000557   -0.000000189
     26        1          -0.000000511    0.000000279    0.000000059
 -------------------------------------------------------------------
 Cartesian Forces:  Max     0.000001042 RMS     0.000000277

 GradGradGradGradGradGradGradGradGradGradGradGradGradGradGradGradGradGrad
 Berny optimization.
 Search for a local minimum.
 Step number   1 out of a maximum of   88
 All quantities printed in internal units (Hartrees-Bohrs-Radians)
 Second derivative matrix not updated -- analytic derivatives used.
 ITU=  0
     Eigenvalues ---    0.00009   0.00029   0.00040   0.00159   0.00169
     Eigenvalues ---    0.00214   0.00435   0.00532   0.00625   0.01316
     Eigenvalues ---    0.01324   0.01368   0.02439   0.02532   0.02808
     Eigenvalues ---    0.02865   0.02890   0.03009   0.03318   0.03990
     Eigenvalues ---    0.03992   0.04255   0.06579   0.06745   0.06865
     Eigenvalues ---    0.07066   0.07363   0.07733   0.09649   0.09806
     Eigenvalues ---    0.11399   0.14019   0.16586   0.16651   0.16877
     Eigenvalues ---    0.17266   0.20732   0.20942   0.21018   0.23081
     Eigenvalues ---    0.23314   0.24537   0.28393   0.28965   0.29831
     Eigenvalues ---    0.35811   0.37341   0.39109   0.48931   0.50014
     Eigenvalues ---    0.51589   0.67400   0.68032   0.68219   0.85841
     Eigenvalues ---    0.86203   0.86546   0.94549   0.95555   0.97057
     Eigenvalues ---    1.13076   1.13883   1.15979   1.16348   1.19448
     Eigenvalues ---    1.20917
 RFO step:  Lambda= 0.00000000D+00 EMin= 8.88549482D-05
 Linear search not attempted -- first point.
 Variable       Old X    -DE/DX   Delta X   Delta X   Delta X     New X
                                 (Linear)    (Quad)   (Total)
    X1       -1.23999  -0.00000   0.00000   0.00000   0.00000  -1.23999
    Y1       -9.52118  -0.00000   0.00000   0.00000   0.00000  -9.52118
    Z1       -6.53361  -0.00000   0.00000   0.00000   0.00000  -6.53361
    X2       -0.53440  -0.00000   0.00000   0.00000   0.00000  -0.53440
    Y2       -6.94584  -0.00000   0.00000   0.00000   0.00000  -6.94584
    Z2       -4.14735  -0.00000   0.00000   0.00000   0.00000  -4.14735
    X3       -2.06982   0.00000   0.00000   0.00001   0.00001  -2.06982
    Y3       -7.47930  -0.00000   0.00000  -0.00000  -0.00000  -7.47931
    Z3       -2.14309  -0.00000   0.00000   0.00000   0.00000  -2.14309
    X4       -3.82828  -0.00000   0.00000   0.00001   0.00001  -3.82827
    Y4      -10.23867  -0.00000   0.00000  -0.00001  -0.00001 -10.23868
    Z4       -2.22476   0.00000   0.00000   0.00001   0.00001  -2.22476
    X5        4.39971  -0.00000   0.00000   0.00000   0.00000   4.39971
    Y5        4.91149  -0.00000   0.00000   0.00000   0.00000   4.91149
    Z5       -4.57207  -0.00000   0.00000   0.00000   0.00000  -4.57207
    X6        6.13995   0.00000   0.00000  -0.00000  -0.00000   6.13995
    Y6        3.05618   0.00000   0.00000  -0.00000  -0.00000   3.05618
    Z6       -4.26064  -0.00000   0.00000   0.00000   0.00000  -4.26064
    X7        9.12880  -0.00000   0.00000  -0.00000  -0.00000   9.12880
    Y7        3.21720   0.00000   0.00000   0.00000   0.00000   3.21720
    Z7       -5.54472   0.00000   0.00000   0.00000   0.00000  -5.54472
    X8       -6.28803  -0.00000   0.00000   0.00000   0.00000  -6.28803
    Y8        3.92134  -0.00000   0.00000   0.00000   0.00000   3.92134
    Z8        2.01394  -0.00000   0.00000   0.00000   0.00000   2.01394
    X9       -7.32887  -0.00000   0.00000  -0.00000  -0.00000  -7.32887
    Y9        2.61803  -0.00000   0.00000  -0.00000  -0.00000   2.61803
    Z9        0.07467  -0.00000   0.00000   0.00000   0.00000   0.07467
   X10      -10.47128   0.00000   0.00000  -0.00000  -0.00000 -10.47128
   Y10        2.87695  -0.00000   0.00000  -0.00001  -0.00001   2.87694
   Z10       -0.73988   0.00000   0.00000   0.00001   0.00001  -0.73988
   X11       -0.08138   0.00000   0.00000  -0.00000  -0.00000  -0.08139
   Y11       -0.06805   0.00000   0.00000  -0.00000  -0.00000  -0.06805
   Z11       -0.70562  -0.00000   0.00000  -0.00000  -0.00000  -0.70562
   X12       -0.23384  -0.00000   0.00000   0.00000   0.00000  -0.23384
   Y12       -3.85087  -0.00000   0.00000  -0.00000  -0.00000  -3.85087
   Z12       -1.30619  -0.00000   0.00000   0.00000   0.00000  -1.30619
   X13       -1.91034   0.00000   0.00000   0.00001   0.00001  -1.91033
   Y13       -5.59765   0.00000   0.00000  -0.00000  -0.00000  -5.59766
   Z13       -0.39332   0.00000   0.00000   0.00000   0.00000  -0.39331
   X14       -3.41619   0.00000   0.00000   0.00001   0.00001  -3.41618
   Y14       -5.27973  -0.00000   0.00000  -0.00001  -0.00001  -5.27974
   Z14        2.44090  -0.00000   0.00000   0.00001   0.00001   2.44091
   X15       -3.29434  -0.00000   0.00000  -0.00000  -0.00000  -3.29434
   Y15        1.52747   0.00000   0.00000  -0.00000  -0.00000   1.52746
   Z15        0.18913  -0.00000   0.00000  -0.00000  -0.00000   0.18913
   X16       -5.53108   0.00000   0.00000  -0.00000  -0.00000  -5.53108
   Y16        1.14844   0.00000   0.00000  -0.00001  -0.00001   1.14844
   Z16       -1.05844   0.00000   0.00000   0.00001   0.00001  -1.05843
   X17       -5.74651  -0.00000   0.00000  -0.00001  -0.00001  -5.74652
   Y17       -0.83301   0.00000   0.00000  -0.00001  -0.00001  -0.83303
   Z17       -3.64148   0.00000   0.00000   0.00001   0.00001  -3.64147
   X18        2.73064  -0.00000   0.00000  -0.00000  -0.00000   2.73064
   Y18        1.79678   0.00000   0.00000   0.00000   0.00000   1.79678
   Z18       -2.20041   0.00000   0.00000   0.00000   0.00000  -2.20041
   X19        5.15624  -0.00000   0.00000  -0.00000  -0.00000   5.15624
   Y19        1.14352  -0.00000   0.00000  -0.00000  -0.00000   1.14352
   Z19       -2.82459   0.00000   0.00000   0.00000   0.00000  -2.82459
   X20        6.50577  -0.00000   0.00000  -0.00000  -0.00000   6.50577
   Y20       -1.64724   0.00000   0.00000   0.00000   0.00000  -1.64723
   Z20       -1.82162  -0.00000   0.00000   0.00000   0.00000  -1.82162
   X21        0.53089  -0.00000   0.00000  -0.00000  -0.00000   0.53089
   Y21       -4.74762   0.00000   0.00000   0.00000   0.00000  -4.74761
   Z21       -3.54645   0.00000   0.00000  -0.00000  -0.00000  -3.54645
   X22        1.88389   0.00000   0.00000  -0.00001  -0.00001   1.88388
   Y22       -3.77371   0.00000   0.00000   0.00000   0.00000  -3.77370
   Z22       -4.72675   0.00000   0.00000  -0.00000  -0.00000  -4.72675
   X23       -3.90125   0.00000   0.00000   0.00000   0.00000  -3.90125
   Y23        3.22664  -0.00000   0.00000   0.00000   0.00000   3.22664
   Z23        2.01909  -0.00000   0.00000  -0.00000  -0.00000   2.01909
   X24       -2.51659   0.00000   0.00000   0.00000   0.00000  -2.51658
   Y24        3.93272   0.00000   0.00000   0.00001   0.00001   3.93273
   Z24        3.34896   0.00000   0.00000  -0.00001  -0.00001   3.34895
   X25        2.41175   0.00000   0.00000   0.00000   0.00000   2.41175
   Y25        4.09747  -0.00000   0.00000  -0.00000  -0.00000   4.09747
   Z25       -3.32289  -0.00000   0.00000  -0.00000  -0.00000  -3.32290
   X26        0.65254  -0.00000   0.00000  -0.00000  -0.00000   0.65254
   Y26        5.13147   0.00000   0.00000  -0.00000  -0.00000   5.13147
   Z26       -3.17463   0.00000   0.00000  -0.00000  -0.00000  -3.17463
         Item               Value     Threshold  Converged?
 Maximum Force            0.000001     0.000015     YES
 RMS     Force            0.000000     0.000010     YES
 Maximum Displacement     0.000013     0.000060     YES
 RMS     Displacement     0.000004     0.000040     YES
 Predicted change in Energy=-3.671624D-12
 Optimization completed.
    -- Stationary point found.
 GradGradGradGradGradGradGradGradGradGradGradGradGradGradGradGradGradGrad

                          Input orientation:                          
 ---------------------------------------------------------------------
 Center     Atomic      Atomic             Coordinates (Angstroms)
 Number     Number       Type             X           Y           Z
 ---------------------------------------------------------------------
      1          3           0       -0.656174   -5.038394   -3.457440
      2          7           0       -0.282792   -3.675582   -2.194684
      3          6           0       -1.095303   -3.957877   -1.134074
      4         17           0       -2.025836   -5.418073   -1.177294
      5          7           0        2.328228    2.599049   -2.419433
      6          6           0        3.249122    1.617260   -2.254632
      7         17           0        4.830753    1.702467   -2.934139
      8          7           0       -3.327483    2.075083    1.065729
      9          6           0       -3.878272    1.385404    0.039514
     10         17           0       -5.541163    1.522415   -0.391530
     11         30           0       -0.043067   -0.036009   -0.373400
     12          7           0       -0.123743   -2.037791   -0.691204
     13          6           0       -1.010907   -2.962151   -0.208135
     14         17           0       -1.807770   -2.793913    1.291669
     15          7           0       -1.743289    0.808300    0.100083
     16          6           0       -2.926920    0.607730   -0.560102
     17         17           0       -3.040922   -0.440812   -1.926988
     18          7           0        1.444994    0.950816   -1.164405
     19          6           0        2.728566    0.605127   -1.494711
     20         17           0        3.442704   -0.871680   -0.963961
     21          6           0        0.280937   -2.512330   -1.876699
     22          1           0        0.996911   -1.996959   -2.501287
     23          6           0       -2.064453    1.707465    1.068458
     24          1           0       -1.331720    2.081106    1.772193
     25          6           0        1.276242    2.168288   -1.758400
     26          1           0        0.345309    2.715457   -1.679943
 ---------------------------------------------------------------------
                    Distance matrix (angstroms):
                    1          2          3          4          5
     1  Li   0.000000
     2  N    1.895052   0.000000
     3  C    2.599689   1.365561   0.000000
     4  Cl   2.686856   2.666376   1.732031   0.000000
     5  N    8.265268   6.799921   7.507729   9.207336   0.000000
     6  C    7.809982   6.363347   7.156244   8.858993   1.356140
     7  Cl   8.707435   7.457784   8.390344  10.039990   2.707658
     8  N    8.842879   7.278089   6.798409   7.929239   6.663930
     9  C    7.992233   6.597931   6.137823   7.155378   6.785278
    10  Cl   8.735396   7.610585   7.095819   7.819547   8.197490
    11  Zn   5.908558   4.076890   4.131207   5.791738   4.093021
    12  N    4.115721   2.228925   2.196996   3.909034   5.522610
    13  C    3.872287   2.232826   1.362335   2.828587   6.853219
    14  Cl   5.377537   3.906092   2.783281   3.609646   7.743565
    15  N    6.929763   5.244445   4.965830   6.362330   5.111946
    16  C    6.740146   5.292451   4.952679   6.123984   5.919379
    17  Cl   5.400654   4.259422   4.096815   5.134741   6.189590
    18  N    6.748596   5.044827   5.527142   7.253246   2.252081
    19  C    6.867175   5.280408   5.964314   7.680106   2.234078
    20  Cl   6.354506   4.822434   5.490634   7.114782   3.925101
    21  C    3.123767   1.331187   2.129586   3.775409   5.532825
    22  H    3.591274   2.132937   3.176764   4.753312   4.785645
    23  C    8.244611   6.542141   6.155201   7.471157   5.679432
    24  H    8.859611   7.069358   6.706087   8.088199   5.588668
    25  C    7.652270   6.063971   6.598781   8.294232   1.314988
    26  H    8.017772   6.442426   6.848848   8.487007   2.119520
                    6          7          8          9         10
     6  C    0.000000
     7  Cl   1.723527   0.000000
     8  N    7.381472   9.093657   0.000000
     9  C    7.491102   9.208163   1.353567   0.000000
    10  Cl   8.986059  10.680539   2.707291   1.723304   0.000000
    11  Zn   4.136525   5.773543   4.161153   4.110926   5.714724
    12  N    5.213437   6.600554   5.501499   5.133099   6.489477
    13  C    6.580806   7.957057   5.688847   5.213861   6.377161
    14  Cl   7.589918   9.063381   5.105654   4.829240   5.949964
    15  N    5.578823   7.295483   2.246527   2.212435   3.895573
    16  C    6.483369   8.186330   2.226410   1.367255   2.774767
    17  Cl   6.626286   8.220174   3.920230   2.811290   3.530311
    18  N    2.210796   3.893623   5.386466   5.474984   7.051982
    19  C    1.368529   2.774040   6.737385   6.827370   8.393262
    20  Cl   2.810361   3.526261   7.657577   7.726453   9.315001
    21  C    5.099654   6.291543   6.536278   6.013586   7.237523
    22  H    4.265662   5.345228   6.928601   6.454724   7.719034
    23  C    6.267786   7.972746   1.315445   2.110068   3.775357
    24  H    6.116746   7.763311   2.117120   3.157706   4.765841
    25  C    2.107637   3.772784   5.401729   5.514927   6.983015
    26  H    3.157283   4.766379   4.630140   4.750180   6.142793
                   11         12         13         14         15
    11  Zn   0.000000
    12  N    2.028457   0.000000
    13  C    3.086476   1.369254   0.000000
    14  Cl   3.673236   2.709142   1.706665   0.000000
    15  N    1.956476   3.368872   3.853269   3.794730   0.000000
    16  C    2.960720   3.856653   4.066821   4.031467   1.370057
    17  Cl   3.400682   3.547878   3.665047   4.173428   2.711669
    18  N    1.952905   3.408317   4.717755   5.534959   3.432840
    19  C    3.057833   3.970681   5.325825   6.316307   4.752066
    20  Cl   3.632865   3.762148   4.977549   6.029123   5.554192
    21  C    2.914970   1.339534   2.157616   3.805331   4.362538
    22  H    3.074863   2.129303   3.197104   4.784129   4.705879
    23  C    3.033918   4.570526   4.954287   4.514212   1.359924
    24  H    3.278166   4.949025   5.427620   4.921721   2.141349
    25  C    2.918514   4.559602   5.827159   6.590712   3.797512
    26  H    3.070579   4.877600   6.020031   6.619621   3.341853
                   16         17         18         19         20
    16  C    0.000000
    17  Cl   1.726503   0.000000
    18  N    4.426796   4.758319   0.000000
    19  C    5.732192   5.879442   1.369730   0.000000
    20  Cl   6.551631   6.568902   2.711552   1.724137   0.000000
    21  C    4.664606   3.915158   3.722334   3.981877   3.677172
    22  H    5.094021   4.365262   3.267631   3.283698   3.100246
    23  C    2.146037   3.813303   4.227814   5.545991   6.411825
    24  H    3.186707   4.792221   4.196582   5.416373   6.245047
    25  C    4.640887   5.047151   1.365117   2.149942   3.816556
    26  H    4.050190   4.635690   2.142205   3.188686   4.793124
                   21         22         23         24         25
    21  C    0.000000
    22  H    1.080896   0.000000
    23  C    5.655217   5.986467   0.000000
    24  H    6.083973   6.349470   1.082473   0.000000
    25  C    4.786733   4.240187   4.400424   4.390234   0.000000
    26  H    5.231884   4.827635   3.791663   3.889996   1.082675
                   26
    26  H    0.000000
 Symmetry turned off by external request.
 Stoichiometry    C9H3Cl6LiN6Zn
 Framework group  C1[X(C9H3Cl6LiN6Zn)]
 Deg. of freedom    72
 Full point group                 C1      NOp   1
 Rotational constants (GHZ):           0.1783474           0.1121416           0.0787314
    4 atoms frozen in the vibrational analysis.
 Diagonal vibrational polarizability:
       53.4678644     113.1294115     145.8584382
 Harmonic frequencies (cm**-1), IR intensities (KM/Mole), Raman scattering
 activities (A**4/AMU), depolarization ratios for plane and unpolarized
 incident light, reduced masses (AMU), force constants (mDyne/A),
 and normal coordinates:
                      1                      2                      3
                      A                      A                      A
 Frequencies --      9.4600                17.4872                20.4993
 Red. masses --     26.2871                25.5141                25.4841
 Frc consts  --      0.0014                 0.0046                 0.0063
 IR Inten    --      0.5095                 0.2185                 0.4119
  Atom  AN      X      Y      Z        X      Y      Z        X      Y      Z
     3   6    -0.12   0.06  -0.08     0.14  -0.07   0.09     0.08  -0.04   0.05
     4  17    -0.21   0.12  -0.15     0.26  -0.14   0.20     0.14  -0.08   0.10
     6   6     0.00  -0.00  -0.03    -0.04  -0.06  -0.14     0.06   0.09   0.20
     7  17    -0.01  -0.00  -0.07    -0.11  -0.12  -0.32     0.15   0.17   0.42
     9   6     0.07   0.16  -0.15     0.06   0.06  -0.08     0.04   0.08  -0.07
    10  17     0.12   0.30  -0.29     0.11   0.14  -0.22     0.08   0.20  -0.21
    11  30     0.01   0.01  -0.00     0.04  -0.00   0.04     0.01  -0.02   0.04
    12   7    -0.05   0.01  -0.00     0.06   0.00  -0.01     0.04  -0.02   0.01
    13   6    -0.16   0.07  -0.08     0.18  -0.06   0.09     0.11  -0.05   0.06
    14  17    -0.30   0.13  -0.16     0.36  -0.13   0.19     0.21  -0.11   0.12
    15   7     0.04   0.06  -0.01     0.04  -0.01   0.08     0.00  -0.05   0.07
    16   6     0.09   0.20  -0.15     0.09   0.06  -0.03     0.04   0.05  -0.03
    17  17     0.19   0.37  -0.30     0.17   0.11  -0.08     0.10   0.11  -0.08
    18   7     0.03  -0.01   0.01     0.04  -0.01   0.02    -0.03   0.02   0.00
    19   6     0.02  -0.01  -0.03    -0.01  -0.06  -0.13     0.04   0.10   0.20
    20  17     0.03  -0.02  -0.06    -0.03  -0.12  -0.28     0.07   0.19   0.40
    21   6     0.04  -0.03   0.04    -0.05   0.04  -0.06    -0.02   0.01  -0.02
    22   1     0.13  -0.08   0.11    -0.16   0.09  -0.14    -0.08   0.05  -0.06
    23   6    -0.02  -0.06   0.08    -0.01  -0.04   0.09    -0.02  -0.07   0.08
    24   1    -0.07  -0.18   0.20    -0.06  -0.10   0.17    -0.05  -0.15   0.16
    25   6     0.02  -0.00   0.02     0.05   0.03   0.09    -0.05  -0.04  -0.11
    26   1     0.02  -0.00   0.05     0.08   0.07   0.21    -0.11  -0.10  -0.27
                      4                      5                      6
                      A                      A                      A
 Frequencies --     41.5877                45.3838                49.2766
 Red. masses --     25.3640                22.0713                23.6130
 Frc consts  --      0.0258                 0.0268                 0.0338
 IR Inten    --      0.1976                 0.4988                 0.5364
  Atom  AN      X      Y      Z        X      Y      Z        X      Y      Z
     3   6    -0.04   0.06  -0.01     0.04   0.05   0.05    -0.02   0.00  -0.01
     4  17    -0.20   0.17  -0.06     0.12   0.00   0.21    -0.04   0.01  -0.04
     6   6     0.02   0.01  -0.01    -0.00  -0.00   0.01    -0.09  -0.09   0.02
     7  17    -0.06  -0.05  -0.20    -0.09  -0.14  -0.22    -0.13  -0.33  -0.10
     9   6     0.11  -0.10   0.00    -0.04   0.02   0.01    -0.06   0.07  -0.01
    10  17     0.15  -0.18  -0.17    -0.09  -0.08   0.18     0.00   0.38  -0.14
    11  30     0.16  -0.02   0.20     0.01   0.10  -0.03    -0.07  -0.01   0.03
    12   7     0.13  -0.03   0.03    -0.03   0.13  -0.14    -0.01  -0.01   0.01
    13   6     0.04   0.04   0.01     0.02   0.13  -0.04    -0.02  -0.01  -0.01
    14  17     0.04   0.08   0.00     0.06   0.25  -0.04    -0.04  -0.02  -0.02
    15   7     0.12  -0.06   0.24    -0.00   0.15  -0.19    -0.15  -0.25   0.11
    16   6     0.18  -0.12   0.15    -0.04   0.11  -0.11    -0.15  -0.10   0.06
    17  17     0.31  -0.22   0.21    -0.08   0.20  -0.18    -0.27  -0.17   0.13
    18   7     0.12   0.09   0.22     0.11   0.16   0.28    -0.11   0.15   0.13
    19   6     0.09   0.07   0.12     0.06   0.10   0.18    -0.15   0.01   0.10
    20  17     0.16   0.13   0.20     0.08   0.16   0.31    -0.27  -0.00   0.22
    21   6     0.10  -0.05   0.03    -0.04   0.05  -0.11     0.00  -0.01   0.01
    22   1     0.15  -0.10   0.04    -0.08   0.03  -0.17     0.02  -0.01   0.02
    23   6     0.01   0.02   0.14     0.02   0.08  -0.12    -0.06  -0.18   0.07
    24   1    -0.06   0.08   0.17     0.05   0.09  -0.16    -0.04  -0.27   0.09
    25   6     0.06   0.04   0.14     0.06   0.10   0.16    -0.02   0.13   0.07
    26   1     0.07   0.05   0.18     0.08   0.13   0.20     0.03   0.22   0.07
                      7                      8                      9
                      A                      A                      A
 Frequencies --     66.5917                73.4708                79.1517
 Red. masses --     27.0278                28.2338                27.5099
 Frc consts  --      0.0706                 0.0898                 0.1015
 IR Inten    --      0.5549                 0.2330                 0.0175
  Atom  AN      X      Y      Z        X      Y      Z        X      Y      Z
     3   6    -0.00   0.15   0.05     0.03   0.01   0.03    -0.02  -0.06  -0.04
     4  17    -0.30   0.35   0.14     0.33  -0.18   0.27    -0.04  -0.05  -0.20
     6   6     0.03   0.03  -0.01     0.05   0.05  -0.02     0.08   0.07  -0.06
     7  17     0.06   0.15   0.06     0.05   0.20   0.01    -0.02   0.21  -0.29
     9   6    -0.04   0.04  -0.01     0.02   0.00  -0.01    -0.06   0.05  -0.00
    10  17    -0.02   0.20  -0.02     0.08   0.17  -0.18    -0.05   0.22   0.03
    11  30    -0.02   0.04  -0.10     0.04   0.07   0.02     0.03  -0.01  -0.03
    12   7     0.25   0.05  -0.08    -0.15   0.14  -0.15    -0.03  -0.08   0.10
    13   6     0.18   0.17   0.01    -0.09   0.13  -0.08    -0.03  -0.12   0.03
    14  17     0.38   0.37   0.09    -0.30   0.33  -0.21    -0.00  -0.33   0.07
    15   7    -0.07  -0.08  -0.03    -0.02  -0.11   0.12    -0.07  -0.06  -0.09
    16   6    -0.09  -0.01  -0.01    -0.00  -0.09   0.08    -0.12   0.01  -0.05
    17  17    -0.18  -0.06   0.03    -0.07  -0.23   0.20    -0.29  -0.03  -0.00
    18   7     0.03  -0.05  -0.07     0.09  -0.05  -0.02     0.20  -0.06   0.09
    19   6     0.04  -0.01  -0.06     0.10   0.01  -0.04     0.22   0.04   0.01
    20  17     0.09  -0.03  -0.17     0.19   0.02  -0.13     0.49   0.18   0.01
    21   6     0.15  -0.05  -0.08    -0.10   0.08  -0.10    -0.01  -0.02   0.08
    22   1     0.18  -0.15  -0.13    -0.14   0.08  -0.14     0.01   0.01   0.12
    23   6    -0.02  -0.07  -0.02    -0.02  -0.05   0.07    -0.01  -0.06  -0.06
    24   1     0.01  -0.11  -0.02    -0.03  -0.06   0.09     0.03  -0.10  -0.08
    25   6     0.00  -0.04  -0.03     0.03  -0.05   0.00     0.08  -0.08   0.08
    26   1    -0.01  -0.07  -0.03     0.01  -0.09   0.02     0.04  -0.14   0.14
                     10                     11                     12
                      A                      A                      A
 Frequencies --    118.0132               150.3652               151.6477
 Red. masses --     46.6510                32.1519                29.7447
 Frc consts  --      0.3828                 0.4283                 0.4030
 IR Inten    --      6.5955                 0.7557                 1.1364
  Atom  AN      X      Y      Z        X      Y      Z        X      Y      Z
     3   6    -0.00   0.01   0.01    -0.00   0.03   0.06     0.01  -0.02  -0.01
     4  17    -0.03   0.03   0.04    -0.24   0.21   0.70     0.12  -0.09  -0.17
     6   6     0.01   0.01   0.04    -0.01  -0.01  -0.01    -0.01  -0.03  -0.00
     7  17     0.07   0.05   0.20    -0.02  -0.01  -0.03     0.05  -0.32   0.09
     9   6    -0.03   0.02   0.02    -0.01   0.00   0.02    -0.02   0.02   0.04
    10  17    -0.08   0.07   0.22    -0.05   0.13   0.20    -0.10   0.35   0.47
    11  30     0.26   0.00   0.67    -0.03  -0.02   0.00    -0.04  -0.09   0.03
    12   7    -0.03   0.04   0.00     0.05  -0.03   0.11     0.13  -0.09   0.05
    13   6    -0.02   0.02   0.00     0.02  -0.02   0.06     0.07  -0.04   0.03
    14  17    -0.01   0.01   0.01    -0.26  -0.37  -0.05     0.04   0.21  -0.02
    15   7    -0.04  -0.07  -0.01    -0.03  -0.07   0.09    -0.03  -0.08   0.15
    16   6    -0.07  -0.01  -0.02    -0.02  -0.03   0.05    -0.02  -0.04   0.08
    17  17    -0.32   0.19  -0.14     0.16   0.01   0.00     0.36  -0.02   0.03
    18   7     0.06   0.06   0.19    -0.04  -0.05  -0.09    -0.05  -0.12  -0.11
    19   6     0.03   0.03   0.09    -0.02  -0.03  -0.05    -0.02  -0.06  -0.06
    20  17    -0.06  -0.13  -0.22     0.03   0.03   0.03     0.26   0.08  -0.06
    21   6    -0.03   0.03   0.00     0.03  -0.02   0.09     0.09  -0.06   0.03
    22   1    -0.05   0.05  -0.00     0.05  -0.01   0.11     0.12  -0.08   0.04
    23   6    -0.02  -0.06  -0.01    -0.02  -0.04   0.06    -0.02  -0.05   0.10
    24   1    -0.01  -0.09  -0.00    -0.03  -0.05   0.08    -0.04  -0.06   0.13
    25   6     0.04   0.04   0.12    -0.02  -0.03  -0.06    -0.02  -0.08  -0.07
    26   1     0.05   0.04   0.15    -0.03  -0.04  -0.08    -0.04  -0.11  -0.09
                     13                     14                     15
                      A                      A                      A
 Frequencies --    152.3849               156.5772               170.4092
 Red. masses --     32.4634                15.5646                11.4714
 Frc consts  --      0.4441                 0.2248                 0.1963
 IR Inten    --      0.2171                 1.5827                 4.2782
  Atom  AN      X      Y      Z        X      Y      Z        X      Y      Z
     3   6     0.00  -0.00  -0.01    -0.01   0.01  -0.01     0.01  -0.01   0.01
     4  17     0.04  -0.03  -0.11    -0.05   0.04  -0.06    -0.01  -0.00   0.03
     6   6    -0.01   0.05  -0.04     0.02   0.02   0.05    -0.00  -0.01  -0.02
     7  17    -0.16   0.62  -0.32     0.06   0.02   0.13    -0.00  -0.04  -0.04
     9   6    -0.01   0.01   0.03     0.00   0.03  -0.00     0.02   0.05  -0.05
    10  17    -0.06   0.21   0.29    -0.01   0.18   0.08     0.03   0.12  -0.04
    11  30     0.01   0.00   0.05     0.01   0.18  -0.06     0.04  -0.05   0.08
    12   7     0.01  -0.00  -0.01    -0.17   0.13  -0.10     0.03  -0.04   0.05
    13   6     0.01  -0.00  -0.00    -0.08   0.06  -0.05     0.02  -0.03   0.03
    14  17     0.04   0.08   0.00     0.03  -0.14   0.03    -0.01   0.03   0.01
    15   7    -0.02  -0.06   0.11     0.05   0.21  -0.11     0.13   0.42  -0.34
    16   6    -0.01  -0.03   0.06     0.04   0.10  -0.06     0.08   0.24  -0.20
    17  17     0.20  -0.00   0.02     0.16  -0.12   0.10    -0.02  -0.13   0.09
    18   7    -0.07   0.02  -0.13     0.16   0.21   0.37    -0.06  -0.12  -0.20
    19   6    -0.05   0.01  -0.07     0.09   0.11   0.21    -0.03  -0.06  -0.11
    20  17    -0.38  -0.05   0.21    -0.06  -0.08  -0.13    -0.02   0.00   0.08
    21   6     0.00  -0.00  -0.01    -0.12   0.08  -0.07     0.02  -0.02   0.03
    22   1    -0.00   0.00  -0.01    -0.15   0.10  -0.09     0.02  -0.00   0.04
    23   6    -0.01  -0.03   0.07     0.03   0.15  -0.07     0.08   0.27  -0.22
    24   1    -0.03  -0.04   0.10     0.04   0.20  -0.10     0.10   0.36  -0.29
    25   6    -0.05   0.03  -0.08     0.10   0.14   0.24    -0.05  -0.08  -0.12
    26   1    -0.04   0.04  -0.12     0.13   0.18   0.32    -0.07  -0.12  -0.17
                     16                     17                     18
                      A                      A                      A
 Frequencies --    179.3058               233.5455               241.0038
 Red. masses --     12.4709                32.4516                19.0992
 Frc consts  --      0.2362                 1.0429                 0.6536
 IR Inten    --      8.4601                21.5114                22.0849
  Atom  AN      X      Y      Z        X      Y      Z        X      Y      Z
     3   6    -0.01   0.01  -0.01     0.01   0.06  -0.02     0.12   0.05   0.05
     4  17    -0.08   0.05  -0.05     0.06   0.04  -0.04     0.14   0.07  -0.08
     6   6    -0.01  -0.02  -0.05     0.13   0.00  -0.12    -0.02  -0.00  -0.04
     7  17    -0.01  -0.07  -0.04     0.23  -0.15  -0.02    -0.01  -0.01   0.01
     9   6    -0.00  -0.01   0.02     0.12  -0.06   0.03    -0.04   0.03  -0.01
    10  17     0.01  -0.01   0.00     0.14   0.08   0.15    -0.05  -0.03  -0.05
    11  30    -0.05   0.18   0.08     0.49   0.08  -0.23    -0.04   0.37   0.06
    12   7    -0.34   0.22  -0.20     0.07   0.04  -0.07     0.46  -0.08   0.19
    13   6    -0.16   0.11  -0.10     0.04   0.08  -0.05     0.33  -0.03   0.12
    14  17     0.08  -0.05   0.05    -0.00  -0.09  -0.08    -0.09  -0.07  -0.10
    15   7    -0.03  -0.01   0.10     0.17  -0.10   0.12    -0.07   0.02  -0.02
    16   6    -0.00  -0.03   0.06     0.15  -0.09   0.10    -0.06   0.03  -0.03
    17  17     0.02   0.03   0.03    -0.14   0.07   0.01     0.01  -0.01  -0.01
    18   7    -0.10  -0.15  -0.30     0.21  -0.12  -0.22    -0.05   0.02  -0.11
    19   6    -0.06  -0.09  -0.18     0.18  -0.09  -0.20    -0.06  -0.01  -0.09
    20  17     0.06   0.06   0.06    -0.13  -0.13   0.16    -0.01   0.07  -0.02
    21   6    -0.25   0.17  -0.14     0.05  -0.02  -0.05     0.30  -0.13   0.12
    22   1    -0.35   0.23  -0.20     0.07  -0.08  -0.08     0.37  -0.22   0.12
    23   6    -0.02   0.00   0.07     0.04  -0.04   0.08    -0.03  -0.00  -0.00
    24   1    -0.04   0.01   0.08    -0.01  -0.01   0.12    -0.01  -0.03  -0.00
    25   6    -0.07  -0.10  -0.19     0.06  -0.12  -0.08    -0.03   0.03  -0.07
    26   1    -0.09  -0.13  -0.25     0.01  -0.20  -0.03    -0.02   0.06  -0.10
                     19                     20                     21
                      A                      A                      A
 Frequencies --    265.4726               268.5522               269.9797
 Red. masses --     13.6683                 8.4513                11.1086
 Frc consts  --      0.5676                 0.3591                 0.4771
 IR Inten    --      3.5076                 2.8562                 5.4339
  Atom  AN      X      Y      Z        X      Y      Z        X      Y      Z
     3   6     0.02  -0.01   0.01     0.06  -0.01   0.01    -0.25   0.06  -0.06
     4  17     0.00  -0.00   0.00     0.02   0.04  -0.02    -0.04  -0.13   0.06
     6   6    -0.05   0.00   0.01    -0.06  -0.03  -0.06     0.04  -0.02  -0.03
     7  17    -0.07   0.02   0.02    -0.04   0.02   0.03     0.06  -0.01  -0.01
     9   6     0.06  -0.15   0.21     0.13   0.30  -0.22     0.05   0.14  -0.09
    10  17     0.19   0.07   0.05     0.03  -0.06   0.09     0.01  -0.03   0.03
    11  30    -0.06  -0.01  -0.01    -0.00  -0.04  -0.01    -0.04   0.10  -0.00
    12   7     0.05  -0.03   0.04     0.02   0.03  -0.08    -0.06  -0.09   0.23
    13   6     0.04  -0.03   0.03     0.07   0.01  -0.03    -0.26  -0.00   0.06
[...]
 1,0.00129034,0.00081985,-0.00255949,-0.00150106,0.00078728,-0.00037677
 ,0.00095619,0.00070476,-0.00037850,-0.00014171,0.00009207,0.00006175,-
 0.00015524,-0.00220081,-0.00740310,-0.00536933,0.00347498,-0.08487150,
 -0.09010105,0.00643139,0.10538185,0.,0.,0.,0.,0.,0.,0.00003855,0.00018
 157,-0.00004537,0.00005706,0.00007922,0.00002774,0.,0.,0.,-0.00001861,
 -0.00005251,0.00000099,-0.00007023,-0.00001022,0.00003575,0.,0.,0.,-0.
 01255145,-0.00613466,-0.01348338,0.00133412,0.00119175,0.00077591,0.00
 124080,-0.00209831,-0.00259312,-0.00060390,0.00134835,0.00038395,-0.00
 060584,-0.00009545,-0.00059178,-0.00006480,0.00000792,0.00027293,0.000
 08836,-0.01125132,-0.01761722,-0.00543575,-0.09214429,-0.12993659,0.01
 927304,0.12153323,0.17013272,0.,0.,0.,0.,0.,0.,0.00000115,0.00008996,0
 .00004398,-0.00024522,-0.00035928,-0.00016396,0.,0.,0.,-0.04284745,-0.
 05085031,0.05059836,-0.00766784,-0.00079071,0.00512398,0.,0.,0.,0.0002
 2903,0.00083523,0.00100068,-0.00096281,0.00022393,-0.00023902,-0.07159
 541,-0.04034218,0.03177422,-0.00042476,-0.00157821,0.00149943,0.000942
 39,0.00010267,-0.00064515,-0.00004323,-0.00006040,0.00006245,-0.007930
 93,-0.00108927,0.00264939,0.00224141,0.00117080,0.00314357,-0.00037587
 ,-0.00048384,-0.00052591,0.54661283,0.,0.,0.,0.,0.,0.,-0.00009429,-0.0
 0008478,0.00004518,-0.00046095,-0.00081142,-0.00027372,0.,0.,0.,0.0129
 1053,-0.01331440,0.00893484,0.00019752,-0.00022619,0.00267011,0.,0.,0.
 ,0.00024881,-0.00010773,0.00009628,-0.00008105,0.00000887,0.00000689,-
 0.03879121,-0.03311198,0.02157955,-0.00481251,-0.00637571,0.00177964,0
 .00215087,-0.00015194,-0.00276564,-0.00034214,0.00004456,0.00053682,0.
 00251881,0.00057594,-0.00084937,0.00025201,-0.00046247,-0.00079676,-0.
 00023652,0.00028073,0.00031827,-0.01770859,0.47282906,0.,0.,0.,0.,0.,0
 .,-0.00017533,0.00001914,0.00021798,0.00005277,0.00021143,0.00009249,0
 .,0.,0.,0.01588491,0.03317916,-0.01160398,0.00459867,0.00279782,0.0010
 0700,0.,0.,0.,0.00000126,-0.00016627,-0.00019963,0.00051314,-0.0000916
 8,0.00011031,0.03206051,0.02153575,-0.02390605,0.00106699,0.00122476,0
 .00080024,-0.00051474,-0.00055619,0.00048584,0.00000234,0.00003291,0.0
 0008978,0.00304586,0.00116660,0.00177318,-0.00055941,-0.00107655,-0.00
 173494,-0.00006022,0.00026288,0.00044607,-0.15388405,-0.18424171,0.248
 11884,0.,0.,0.,0.,0.,0.,0.00006191,0.00008348,0.00014226,0.00022662,0.
 00039189,0.00015109,0.,0.,0.,-0.12682661,-0.07806708,0.06679546,-0.017
 76084,-0.01757808,0.01733385,0.,0.,0.,-0.00012917,-0.00024774,-0.00035
 416,0.00045107,-0.00008175,0.00009087,-0.01480736,-0.00486182,0.004504
 83,0.00119888,0.00308465,-0.00060482,-0.00094628,-0.00024717,0.0010580
 2,0.00009969,0.00005076,-0.00014924,0.00283542,-0.00006502,0.00000162,
 -0.00084772,-0.00051430,-0.00095076,0.00012772,0.00015112,0.00017638,-
 0.28274779,0.05444126,0.06066551,0.53126131,0.,0.,0.,0.,0.,0.,-0.00000
 912,-0.00007965,-0.00031936,-0.00000098,0.00005567,-0.00006881,0.,0.,0
 .,-0.11090297,-0.24415808,0.14194151,0.00510579,0.00333456,-0.00316911
 ,0.,0.,0.,0.00013427,0.00031155,0.00033150,-0.00039487,0.00007117,-0.0
 0009376,-0.00270845,0.00775367,-0.00218210,0.00035995,-0.00188597,0.00
 039188,0.00028406,0.00017965,0.00004289,0.00009207,-0.00006398,-0.0001
 4933,-0.00300313,-0.00048467,0.00109795,0.00085045,0.00051260,0.001148
 56,-0.00009647,-0.00028655,-0.00022435,0.03406135,-0.09280850,0.002967
 20,-0.06711471,0.58835722,0.,0.,0.,0.,0.,0.,0.00001303,0.00004504,0.00
 011155,-0.00011241,-0.00019559,-0.00003649,0.,0.,0.,0.08519663,0.13105
 025,-0.16974828,0.00436132,0.00589238,-0.00362829,0.,0.,0.,0.00003461,
 -0.00000944,0.00004748,0.00004498,-0.00001397,0.00001049,0.00599742,-0
 .00280761,-0.00238145,-0.00066782,-0.00037287,0.00010054,0.00029359,-0
 .00004753,-0.00048406,-0.00010591,0.00001783,0.00016307,0.00078344,0.0
 0060936,0.00036839,0.00008002,-0.00019011,-0.00039202,-0.00001890,0.00
 009795,0.00007058,0.06807757,-0.00371100,-0.08730299,-0.13389458,-0.23
 979008,0.28605677,0.,0.,0.,0.,0.,0.,-0.00009895,-0.00013434,0.00004799
 ,-0.00003487,-0.00019264,-0.00000740,0.,0.,0.,0.00224543,-0.00457529,0
 .00145006,0.00152081,-0.00126189,-0.00043273,0.,0.,0.,0.00007681,0.000
 03961,0.00006229,-0.00009649,0.00001386,-0.00001909,0.00117342,0.00068
 472,-0.00061383,-0.00095179,-0.00097702,0.00003808,0.00014811,0.000170
 64,-0.00049330,-0.00004768,-0.00000717,0.00008623,-0.00035043,-0.00005
 020,0.00013829,0.00016651,0.00006931,0.00015391,-0.00003385,-0.0000318
 7,-0.00001916,-0.00928745,0.02936142,-0.01416933,-0.06183726,0.0613895
 2,-0.01381529,0.07422596,0.,0.,0.,0.,0.,0.,-0.00001163,0.00009107,0.00
 034913,-0.00004762,-0.00013544,0.00003075,0.,0.,0.,0.02191335,-0.01563
 246,-0.00006689,-0.00135825,0.00057968,-0.00046424,0.,0.,0.,-0.0000777
 9,-0.00007113,-0.00004356,0.00012184,-0.00000985,0.00002551,-0.0011465
 5,-0.00360174,0.00112363,-0.00043661,0.00083998,-0.00025661,-0.0001166
 3,-0.00019443,-0.00016717,-0.00009451,0.00002821,0.00017215,0.00060530
 ,0.00038794,-0.00020084,-0.00018919,-0.00018404,-0.00033938,0.00001157
 ,0.00013847,0.00007595,0.00692244,-0.01209201,0.00248053,0.05613545,-0
 .15794734,0.05737495,-0.08854797,0.20008059,0.,0.,0.,0.,0.,0.,-0.00004
 899,-0.00000140,0.00008900,0.00000055,0.00001088,0.00001446,0.,0.,0.,-
 0.01280616,0.00962702,-0.00073680,-0.00030949,-0.00050637,-0.00083239,
 0.,0.,0.,0.00002905,0.00001878,0.00000674,-0.00002107,0.00000132,-0.00
 000383,-0.00040642,0.00116437,-0.00095895,0.00042651,-0.00011628,0.000
 28195,-0.00011612,-0.00016724,0.00009066,0.00001603,-0.00001142,0.0000
 1202,-0.00013671,-0.00010502,0.00009544,0.00004633,0.00000912,0.000047
 89,-0.00000756,-0.00001978,0.00000207,-0.00057699,-0.00789093,0.001034
 90,-0.01216514,0.05769030,-0.03923768,0.02483080,-0.06930444,0.0380037
 3,0.,0.,0.,0.,0.,0.,-0.03540325,-0.03942759,0.04326281,-0.00036260,-0.
 00365095,0.00186453,0.,0.,0.,-0.00015656,-0.00036598,0.00025406,0.0000
 2783,0.00002241,-0.00000490,0.,0.,0.,-0.00023277,-0.00009322,-0.000171
 29,0.00016909,-0.00001642,0.00001920,0.00201422,0.00379733,-0.00283262
 ,-0.11431853,0.01409010,0.07901335,-0.02786197,-0.02886004,0.03856832,
 -0.00021970,-0.00291513,0.00260673,0.00056416,-0.00078378,0.00007830,-
 0.00021963,-0.00001195,0.00020127,-0.00024078,-0.00010262,-0.00018214,
 -0.00015351,-0.00036352,0.00070859,0.00006303,-0.00038124,0.00020129,-
 0.00074809,-0.00013543,-0.00026943,0.49532826,0.,0.,0.,0.,0.,0.,-0.063
 68327,-0.03877183,0.04770156,-0.00294499,-0.00454691,-0.00311147,0.,0.
 ,0.,-0.00055909,0.00017978,0.00012887,0.00038414,0.00004679,-0.0002013
 1,0.,0.,0.,0.00011715,0.00009767,0.00012632,-0.00019098,0.00002439,-0.
 00003895,0.00267982,-0.01114406,-0.00881118,0.02414301,-0.13244097,-0.
 09433174,-0.00610599,0.00764513,0.00047941,-0.00206643,-0.00306794,-0.
 00299334,-0.00026473,0.00008609,0.00078567,0.00078743,-0.00001396,0.00
 021077,-0.00060594,0.00006729,-0.00031692,0.00080033,0.00184786,-0.000
 22326,-0.00091108,-0.00029087,0.00041207,0.00012979,0.00020030,-0.0000
 9514,0.27823296,0.62853100,0.,0.,0.,0.,0.,0.,0.01881875,0.00648755,-0.
 00818785,0.00284760,-0.00197369,-0.00317579,0.,0.,0.,-0.00041215,0.000
 64936,-0.00015244,0.00042951,0.00001594,-0.00022968,0.,0.,0.,0.0003273
 6,0.00040426,0.00061254,-0.00054934,0.00004279,-0.00009008,-0.00136119
 ,-0.01464942,-0.00212571,0.08850676,-0.08043849,-0.30895050,0.06401171
 ,0.04372386,-0.04841562,0.00322438,-0.00157407,-0.00493350,-0.00174791
 ,0.00290726,0.00135088,0.00175228,0.00011463,0.00061839,-0.00154237,0.
 00019551,-0.00051251,0.00110195,0.00246174,-0.00123269,-0.00136034,0.0
 0093063,0.00020276,-0.00010817,-0.00087833,-0.00061391,-0.27087983,0.0
 4398821,0.64597749,0.,0.,0.,0.,0.,0.,0.00368356,-0.00313236,-0.0001291
 9,0.00042080,-0.00050296,0.00057560,0.,0.,0.,-0.00000948,-0.00029072,0
 .00020339,-0.00004226,0.00002650,0.00001263,0.,0.,0.,-0.00007821,0.000
 01998,-0.00001279,0.00001388,-0.00000405,-0.00000304,-0.00008864,0.000
 37842,0.00103300,-0.00408289,-0.00115888,0.00055860,0.00375186,-0.0000
 6350,0.00213619,0.00050886,-0.00048785,0.00034819,-0.00007054,0.000078
 61,-0.00001715,0.00010593,0.00014946,0.00022028,0.00005290,-0.00009465
 ,-0.00014898,-0.00036058,-0.00049971,-0.00023593,0.00060746,-0.0007905
 4,0.00009187,-0.00062309,0.00017388,-0.00024037,-0.17639425,-0.1056403
 3,0.12799951,0.18000716,0.,0.,0.,0.,0.,0.,-0.00257619,-0.00236698,-0.0
 0447877,-0.00124767,-0.00031798,0.00048840,0.,0.,0.,-0.00020891,-0.000
 23139,0.00024420,0.00015826,0.00001108,-0.00007220,0.,0.,0.,-0.0000009
 9,0.00000308,0.00000685,-0.00000667,0.00000083,-0.00000205,0.00102116,
 0.00057287,-0.00094940,0.01197878,0.00911518,-0.00707965,-0.00079181,0
 .00103801,-0.00349674,0.00019884,0.00074033,-0.00077727,-0.00004566,-0
 .00018505,0.00002965,-0.00003094,0.00000845,0.00001336,-0.00000758,-0.
 00002897,0.00001677,0.00050592,0.00024397,0.00032217,-0.00073768,0.000
 46812,0.00006026,-0.00040408,-0.00041041,-0.00030728,-0.10522123,-0.12
 166025,0.07710954,0.11355149,0.12457668,0.,0.,0.,0.,0.,0.,0.00049544,-
 0.00291055,0.00183947,-0.00014810,-0.00071140,0.00064464,0.,0.,0.,-0.0
 0026701,-0.00000527,0.00006122,0.00011654,0.00001961,-0.00007104,0.,0.
 ,0.,-0.00000147,0.00001299,0.00000465,-0.00001256,0.00000147,-0.000005
 05,0.00091243,0.00012619,-0.00093712,0.01707576,0.01502658,-0.01466190
 ,0.00142440,-0.00493840,-0.00220228,0.00107842,0.00047351,-0.00030337,
 -0.00011726,-0.00004890,0.00005116,0.00003270,0.00004554,0.00006131,0.
 00002099,-0.00004146,-0.00002051,0.00005081,0.00038809,0.00000015,-0.0
 0009889,-0.00087661,0.00034355,0.00018851,0.00051871,0.00006183,0.1252
 8403,0.07630529,-0.15505817,-0.13576459,-0.07957422,0.16091346,0.,0.,0
 .,0.,0.,0.,-0.00000473,0.00005546,0.00004627,-0.00003747,-0.00008932,-
 0.00001324,0.,0.,0.,-0.00014742,0.00011777,0.00003726,0.00023435,0.000
 03380,-0.00008458,0.,0.,0.,-0.07208823,-0.04216597,-0.07991777,-0.0037
 7600,0.00063614,-0.00207589,-0.00462748,0.00761402,0.00889357,-0.00050
 456,0.00045864,-0.00049759,0.00001080,0.00020698,0.00017812,-0.0000326
 5,-0.00039586,0.00000939,-0.10320737,0.04275833,0.04137414,-0.02347818
 ,-0.00282058,-0.01882784,-0.00502178,0.00257056,0.00081849,0.00038936,
 -0.00006316,-0.00092160,-0.00057690,0.00028702,-0.00015242,0.00008027,
 -0.00013515,-0.00000088,-0.00004284,0.00004312,0.00006995,0.00001865,0
 .00002575,0.00002505,0.79971583,0.,0.,0.,0.,0.,0.,-0.00012741,-0.00009
 739,0.00017480,0.00018721,0.00033273,0.00007648,0.,0.,0.,0.00023043,-0
 .00022900,0.00006755,-0.00048921,-0.00005765,0.00024338,0.,0.,0.,-0.00
 222659,0.01248505,-0.00015118,0.00143646,0.00050530,-0.00340181,0.0087
 8952,-0.00699741,-0.00341439,-0.00047842,0.00174859,0.00092372,-0.0006
 3688,-0.00069121,0.00009607,0.00010548,0.00039231,-0.00008085,0.024786
 63,-0.18209841,-0.12169870,-0.03081157,-0.01527940,-0.05075363,0.00207
 919,-0.00223337,-0.00557499,-0.00305619,0.00003498,0.00086696,0.001003
 97,-0.00110093,0.00011138,-0.00019814,0.00027540,-0.00007249,0.0002190
 6,-0.00042626,-0.00108766,-0.00002389,-0.00001607,-0.00003191,-0.03254
 612,0.38081413,0.,0.,0.,0.,0.,0.,-0.00021923,-0.00014922,0.00031878,0.
 00024803,0.00042557,0.00010442,0.,0.,0.,0.00019593,-0.00020485,0.00006
 866,-0.00041756,-0.00005967,0.00020628,0.,0.,0.,-0.03198703,-0.0144208
 4,-0.01749558,-0.00093723,-0.00375763,-0.00095483,0.00878726,-0.003698
 14,-0.00316653,-0.00147774,0.00323554,0.00160271,-0.00089954,-0.001164
 70,0.00020858,0.00014511,0.00054862,-0.00013184,0.02119663,-0.11695346
 ,-0.20587174,-0.05288210,-0.04113324,-0.04923399,-0.00043350,-0.004855
 53,-0.00415401,-0.00266880,-0.00000737,0.00075891,0.00093806,-0.000895
 89,0.00008608,-0.00017504,0.00017355,-0.00004527,0.00034633,-0.0004254
 6,-0.00161853,-0.00006399,0.00001534,-0.00002378,0.19038557,0.27322532
 ,0.53953870,0.,0.,0.,0.,0.,0.,-0.00000640,-0.00000868,0.00000040,-0.00
 000291,-0.00000381,0.00000041,0.,0.,0.,-0.00001563,0.00001852,0.000004
 27,0.00001801,0.00000316,-0.00000788,0.,0.,0.,-0.00350051,0.00291667,-
 0.00035800,-0.00078544,-0.00039028,-0.00102075,0.00006577,0.00004575,-
 0.00003247,0.00001989,-0.00007120,-0.00000136,0.00005090,0.00002922,-0
 .00006887,-0.00001589,-0.00000979,0.00003074,0.01094383,0.00363950,0.0
 0944387,-0.00003357,0.00205567,0.00122922,0.00064999,0.00038600,0.0002
 0815,0.00003797,-0.00001442,-0.00006988,-0.00006366,0.00003915,-0.0000
 0555,0.00000470,-0.00001495,0.00000059,-0.00000595,0.00001380,0.000036
 43,-0.00000011,0.00000181,0.00000282,-0.18847090,-0.06468926,-0.133968
 14,0.20215708,0.,0.,0.,0.,0.,0.,-0.00001622,-0.00001350,0.00000502,-0.
 00000126,0.00000128,0.00000610,0.,0.,0.,0.00001462,-0.00003648,0.00002
 514,-0.00001271,-0.00000681,0.00000317,0.,0.,0.,0.00309402,0.00463101,
 -0.00230261,0.00048554,0.00066533,0.00001959,-0.00045500,-0.00032558,-
 0.00083883,0.00010414,-0.00011197,0.00003081,0.00009226,0.00006072,-0.
 00014891,-0.00002350,-0.00001377,0.00007490,-0.01576543,-0.00842942,-0
 .01095356,0.00381109,-0.00001670,-0.00329363,-0.00058338,0.00053383,-0
 .00129784,0.00001366,-0.00010519,0.00011408,0.00010141,0.00002343,-0.0
 0002951,-0.00000241,-0.00002357,0.00002159,-0.00001903,0.00000208,0.00
 004878,0.00000300,-0.00001720,-0.00000276,-0.06329031,-0.07643965,-0.0
 8137776,0.06694358,0.07665909,0.,0.,0.,0.,0.,0.,0.00000804,0.00001140,
 -0.00000569,0.00000467,0.00000666,-0.00000230,0.,0.,0.,0.00004971,0.00
 001317,-0.00005881,-0.00005989,-0.00000083,0.00001784,0.,0.,0.,-0.0002
 1306,-0.00243578,0.00450182,0.00001471,-0.00028908,0.00046988,-0.00067
 115,-0.00065327,-0.00068634,0.00007775,0.00002876,-0.00001505,-0.00002
 938,0.00000921,0.00003583,0.00001101,-0.00000279,-0.00002090,-0.014246
 96,-0.00421908,-0.01391381,0.00319710,-0.00391596,0.00021621,-0.000885
 98,-0.00097084,-0.00002707,0.00012411,0.00009160,0.00014118,0.00002488
 ,-0.00005633,0.00005372,-0.00001923,0.00007456,-0.00001797,-0.00002318
 ,-0.00002843,0.00000011,-0.00000679,-0.00000671,-0.00000626,-0.1317188
 0,-0.08182622,-0.17102380,0.14331274,0.08877616,0.17856412,0.,0.,0.,0.
 ,0.,0.,-0.00002527,-0.00003480,0.00002004,-0.00009804,-0.00018422,-0.0
 0005347,0.,0.,0.,-0.09494000,0.06259269,0.00940513,-0.00367352,0.00205
 265,0.00180703,0.,0.,0.,-0.00026232,-0.00009649,-0.00004417,0.00019057
 ,-0.00001496,0.00005688,0.00182265,-0.00874642,0.00368201,-0.00153172,
 -0.00178844,0.00029495,0.00046404,-0.00013298,-0.00074979,-0.00009704,
 0.00003655,0.00018098,0.00053225,0.00080527,-0.00095608,-0.00037115,-0
 .00020988,-0.00045571,-0.00002495,0.00018688,0.00016903,-0.09806808,0.
 02275706,-0.00266192,-0.05081216,0.03195406,0.01036031,-0.00392490,0.0
 0047118,0.00237076,0.00000043,0.00039336,0.00053112,-0.00003865,0.0001
 8271,0.00004155,-0.00019465,0.00045257,0.00037590,0.00001420,-0.000064
 19,0.00015156,0.82717840,0.,0.,0.,0.,0.,0.,-0.00004488,-0.00005391,0.0
 0010786,0.00025265,0.00044647,0.00016250,0.,0.,0.,0.00890794,0.0101814
 6,-0.00227412,0.00110185,-0.00232228,0.00266993,0.,0.,0.,-0.00010876,-
 0.00027607,-0.00046036,0.00051077,-0.00010303,0.00011044,-0.01317350,-
 0.00993072,0.00609041,0.00120104,0.00284048,-0.00001602,-0.00101602,-0
 .00034162,0.00100659,0.00013670,0.00005523,-0.00015087,0.00301614,-0.0
 0053094,0.00010096,-0.00092473,-0.00047150,-0.00101513,0.00015466,0.00
 017198,0.00014796,0.04721324,-0.26236683,0.08372752,0.06729085,-0.0474
 5775,0.00710362,0.00193342,-0.00654904,0.00446161,0.00037526,-0.000896
 80,-0.00156044,0.00053947,-0.00020794,-0.00003433,-0.00053872,0.001058
 33,0.00090699,-0.00007300,0.00017852,-0.00000690,-0.16368601,0.5760752
 0,0.,0.,0.,0.,0.,0.,-0.00000056,0.00002559,-0.00001034,-0.00015608,-0.
 00023833,-0.00009576,0.,0.,0.,0.03767399,-0.02333343,0.00892294,0.0024
 3573,0.00245883,0.00161150,0.,0.,0.,0.00019161,0.00019604,0.00027017,-
 0.00033154,0.00006136,-0.00007218,0.00504802,0.00732906,-0.00630437,-0
 .00036554,-0.00156091,0.00053902,0.00051890,0.00008227,-0.00048889,-0.
 00003721,-0.00004187,0.00008787,-0.00169228,0.00001260,0.00050035,0.00
 069092,0.00018837,0.00062029,-0.00014366,-0.00009137,-0.00006912,-0.01
 567273,0.09291902,-0.11935342,-0.00921888,0.02267928,0.01041422,0.0014
 0780,0.00475627,-0.00099871,-0.00011893,0.00051527,0.00078007,-0.00035
 886,0.00006518,0.00012851,0.00032084,-0.00074739,-0.00068494,0.0000322
 1,-0.00005938,-0.00000431,-0.18540063,-0.16653427,0.31114162,0.,0.,0.,
 0.,0.,0.,-0.00000619,0.00000119,0.00000326,0.00000423,0.00000665,0.000
 00106,0.,0.,0.,-0.00099120,-0.00129443,0.00411636,-0.00067493,0.000672
 96,0.00024687,0.,0.,0.,-0.00005848,0.00000164,-0.00001738,-0.00000382,
 0.00000320,-0.00000808,-0.00006495,0.00041686,-0.00010106,0.00001603,0
 .00000954,0.00001441,-0.00001800,-0.00000817,0.00001938,0.00000153,0.0
 0000121,-0.00000796,-0.00001530,-0.00000852,-0.00004847,-0.00006856,-0
 .00002992,-0.00001777,-0.00000608,-0.00002037,-0.00001315,0.00245146,-
 0.00175467,-0.00149173,0.00204313,0.00002236,0.00067132,0.00042972,0.0
 0012729,0.00037416,0.00001359,-0.00001590,-0.00002386,-0.00000143,0.00
 000342,-0.00000291,0.00009229,-0.00001509,0.00011642,0.00000743,0.0000
 1742,-0.00006052,-0.27059718,0.13483196,0.02466267,0.28803580,0.,0.,0.
 ,0.,0.,0.,-0.00001835,-0.00001951,0.00001503,-0.00000083,-0.00000023,0
 .00000155,0.,0.,0.,-0.00151860,0.00251189,0.00330672,-0.00049653,0.000
 57453,0.00032017,0.,0.,0.,-0.00010776,-0.00010752,-0.00012028,0.000129
 79,-0.00002294,0.00003268,0.00120100,-0.00154876,0.00048785,-0.0001950
 6,-0.00000708,0.00007157,0.00002141,-0.00004589,-0.00004514,-0.0000192
 6,0.00000778,0.00001273,0.00053040,0.00029497,-0.00063495,-0.00049511,
 -0.00001503,-0.00019898,0.00004824,0.00003372,0.00000500,0.02404723,-0
 .01313975,-0.00463734,-0.00226760,-0.00301078,0.00450699,0.00149148,-0
 .00027223,0.00031831,0.00005292,0.00003232,-0.00003834,0.00004040,0.00
 001547,0.00004065,-0.00022491,0.00044903,0.00037281,-0.00000115,0.0000
 0636,-0.00001075,0.13236064,-0.12912342,0.00152839,-0.14258459,0.13436
 859,0.,0.,0.,0.,0.,0.,0.00000373,-0.00000428,-0.00000968,0.00000291,0.
 00000045,-0.00000441,0.,0.,0.,0.00415841,0.00324751,0.00405971,0.00086
 372,-0.00015978,0.00053029,0.,0.,0.,0.00006925,0.00002381,-0.00001467,
 -0.00009133,0.00001339,-0.00003994,-0.00039249,0.00052629,0.00027022,0
 .00004795,-0.00010936,0.00000241,-0.00000486,0.00003738,0.00003628,0.0
 0000891,-0.00001061,-0.00002657,-0.00017097,-0.00022517,0.00006811,-0.
 00000895,0.00017279,0.00025172,0.00000962,-0.00010085,-0.00015549,-0.0
 1606165,0.00641152,-0.00077454,0.00183759,0.00354430,0.00096581,-0.000
 30951,0.00084716,0.00111572,-0.00002048,0.00001266,0.00002593,0.000029
 61,-0.00000524,0.00000671,0.00018171,-0.00017462,-0.00009393,-0.000004
 52,0.00001049,-0.00011283,0.02651025,0.00016361,-0.03844204,-0.0295589
 7,-0.00280252,0.03620872\\0.,0.,0.,0.,0.,0.,-0.00000019,0.00000017,0.0
 0000044,0.00000006,0.00000003,-0.00000004,0.,0.,0.,-0.00000003,-0.0000
 0043,0.00000036,0.00000010,-0.00000004,-0.00000005,0.,0.,0.,0.00000071
 ,0.00000003,0.00000045,-0.00000035,0.00000003,-0.00000010,-0.00000006,
 -0.00000007,0.00000002,0.00000011,0.00000021,0.00000013,-0.00000005,-0
 .00000029,-0.00000040,-0.00000008,0.,0.00000016,0.00000074,-0.00000003
 ,0.00000015,-0.00000072,-0.00000014,-0.00000044,0.00000005,-0.00000003
 ,-0.00000003,0.00000005,0.,-0.00000007,0.00000040,0.00000052,-0.000000
 43,0.00000005,-0.00000019,0.00000007,0.00000002,0.,-0.00000011,0.,0.,-
 0.00000003,-0.00000058,0.00000017,0.00000019,-0.00000005,-0.00000006,-
 0.00000010,-0.00000104,0.00000056,0.00000019,0.00000051,-0.00000028,-0
 .00000006\\\@


       THE DEATH-KNELL OF THE ATOM

 SO THE ATOMS IN TURN, WE NOW CLEARLY DISCERN,
 FLY TO BITS WITH THE UTMOST FACILITY;
 THEY WEND ON THEIR WAY, AND, IN SPLITTING, DISPLAY
 AN ABSOLUTE LACK OF STABILITY.

          SIR WM. RAMSAY, 1905
 Job cpu time:       0 days  6 hours 52 minutes 43.2 seconds.
 Elapsed time:       0 days  0 hours  6 minutes 28.4 seconds.
 File lengths (MBytes):  RWF=    430 Int=      0 D2E=      0 Chk=     10 Scr=      1
 Normal termination of Gaussian 16 at Fri Oct  4 11:22:26 2019.
