 Entering Gaussian System, Link 0=g16
 Input=Zn_PO_TEABr_opt_freq3.com
 Output=Zn_PO_TEABr_opt_freq3.log
 Initial command:
 /apps/commercial/G16/g16.linda/l1.exe "/scratch/x1711a05/Gau-17692.inp" -scrdir="/scratch/x1711a05/"
 Default linda workers: node3617
 Entering Link 1 = /apps/commercial/G16/g16.linda/l1.exe PID=     17693.
  
 Copyright (c) 1988,1990,1992,1993,1995,1998,2003,2009,2016,
            Gaussian, Inc.  All Rights Reserved.
  
 This is part of the Gaussian(R) 16 program.  It is based on
 the Gaussian(R) 09 system (copyright 2009, Gaussian, Inc.),
 the Gaussian(R) 03 system (copyright 2003, Gaussian, Inc.),
 the Gaussian(R) 98 system (copyright 1998, Gaussian, Inc.),
 the Gaussian(R) 94 system (copyright 1995, Gaussian, Inc.),
 the Gaussian 92(TM) system (copyright 1992, Gaussian, Inc.),
 the Gaussian 90(TM) system (copyright 1990, Gaussian, Inc.),
 the Gaussian 88(TM) system (copyright 1988, Gaussian, Inc.),
 the Gaussian 86(TM) system (copyright 1986, Carnegie Mellon
 University), and the Gaussian 82(TM) system (copyright 1983,
 Carnegie Mellon University). Gaussian is a federally registered
 trademark of Gaussian, Inc.
  
 This software contains proprietary and confidential information,
 including trade secrets, belonging to Gaussian, Inc.
  
 This software is provided under written license and may be
 used, copied, transmitted, or stored only in accord with that
 written license.
  
 The following legend is applicable only to US Government
 contracts under FAR:
  
                    RESTRICTED RIGHTS LEGEND
  
 Use, reproduction and disclosure by the US Government is
 subject to restrictions as set forth in subparagraphs (a)
 and (c) of the Commercial Computer Software - Restricted
 Rights clause in FAR 52.227-19.
  
 Gaussian, Inc.
 340 Quinnipiac St., Bldg. 40, Wallingford CT 06492
  
  
 ---------------------------------------------------------------
 Warning -- This program may not be used in any manner that
 competes with the business of Gaussian, Inc. or will provide
 assistance to any competitor of Gaussian, Inc.  The licensee
 of this program is prohibited from giving any competitor of
 Gaussian, Inc. access to this program.  By using this program,
 the user acknowledges that Gaussian, Inc. is engaged in the
 business of creating and licensing software in the field of
 computational chemistry and represents and warrants to the
 licensee that it is not a competitor of Gaussian, Inc. and that
 it will not use this program in any manner prohibited above.
 ---------------------------------------------------------------
  

 Cite this work as:
 Gaussian 16, Revision A.03,
 M. J. Frisch, G. W. Trucks, H. B. Schlegel, G. E. Scuseria, 
 M. A. Robb, J. R. Cheeseman, G. Scalmani, V. Barone, 
 G. A. Petersson, H. Nakatsuji, X. Li, M. Caricato, A. V. Marenich, 
 J. Bloino, B. G. Janesko, R. Gomperts, B. Mennucci, H. P. Hratchian, 
 J. V. Ortiz, A. F. Izmaylov, J. L. Sonnenberg, D. Williams-Young, 
 F. Ding, F. Lipparini, F. Egidi, J. Goings, B. Peng, A. Petrone, 
 T. Henderson, D. Ranasinghe, V. G. Zakrzewski, J. Gao, N. Rega, 
 G. Zheng, W. Liang, M. Hada, M. Ehara, K. Toyota, R. Fukuda, 
 J. Hasegawa, M. Ishida, T. Nakajima, Y. Honda, O. Kitao, H. Nakai, 
 T. Vreven, K. Throssell, J. A. Montgomery, Jr., J. E. Peralta, 
 F. Ogliaro, M. J. Bearpark, J. J. Heyd, E. N. Brothers, K. N. Kudin, 
 V. N. Staroverov, T. A. Keith, R. Kobayashi, J. Normand, 
 K. Raghavachari, A. P. Rendell, J. C. Burant, S. S. Iyengar, 
 J. Tomasi, M. Cossi, J. M. Millam, M. Klene, C. Adamo, R. Cammi, 
 J. W. Ochterski, R. L. Martin, K. Morokuma, O. Farkas, 
 J. B. Foresman, and D. J. Fox, Gaussian, Inc., Wallingford CT, 2016.
 
 ******************************************
 Gaussian 16:  ES64L-G16RevA.03 25-Dec-2016
                10-Oct-2019 
 ******************************************
 %nprocshared=64
 Will use up to   64 processors via shared memory.
 %mem=64GB
 %chk=Zn_PO_TEABr_opt_freq3.chk
 SetLPE:    new flags="-opt 'Tsnet.Node.lindarsharg: ssh'  -nodelist 'node3617' -env GAUSS_MDEF=8589934592 -env GAUSS_EXEDIR="/apps/commercial/G16/g16.linda""
 Will use up to    1 processors via Linda.
 ----------------------------------------------------------------------
 # opt=(calcall,tight,cartesian) freq cam-b3lyp/gen nosymm scf=(qc,maxc
 ycle=1024,vshift=100) pseudo=read
 ----------------------------------------------------------------------
 1/7=10,10=4,18=10,26=3,38=1/1,3;
 2/12=2,15=1,17=6,18=5,29=2,40=1/2;
 3/5=7,11=2,16=1,17=8,25=1,30=1,71=2,74=-40,140=1/1,2,3;
 4//1;
 5/5=2,7=1024,8=3,10=100,38=5/8;
 8/6=4,10=90,11=11/1;
 11/6=1,8=1,9=11,15=111,16=1,31=1/1,2,10;
 10/6=1,31=1/2;
 6/7=2,8=2,9=2,10=2,18=1,28=1/1;
 7/7=1,10=1,25=1,30=1/1,2,3,16;
 1/7=10,10=4,18=10,26=3/3(3);
 2/15=1,29=1/2;
 7/7=1,8=1,9=1,25=1,30=1,44=-1/16;
 99/12=1/99;
 2/15=1,29=1/2;
 3/5=7,6=1,11=2,16=1,17=8,25=1,30=1,71=2,74=-40,82=7,140=1/1,2,3;
 4/5=5,16=3,69=1/1;
 5/5=2,7=1024,8=3,10=100,38=5/8;
 8/6=4,10=90,11=11/1;
 11/6=1,8=1,9=11,15=111,16=1,31=1/1,2,10;
 10/6=1,31=1/2;
 7/7=1,10=1,25=1,30=1/1,2,3,16;
 1/7=10,10=4,18=10,26=3/3(-8);
 2/15=1,29=1/2;
 6/7=2,8=2,9=2,10=2,18=1,19=2,28=1/1;
 7/7=1,8=1,9=1,25=1,30=1,44=-1/16;
 99/12=1/99;
 ---------------------
 Zn_PO_TEABr_opt_freq3
 ---------------------
 Symbolic Z-matrix:
 Charge =  0 Multiplicity = 1
 Li                   -1   -0.65617  -5.03839  -3.45744 
 N                    -1   -0.28279  -3.67558  -2.19468 
 C                    0    -0.95364  -4.05128  -1.06711 
 Cl                   0    -1.73158  -5.60217  -1.05333 
 N                    -1    2.32823   2.59905  -2.41943 
 C                    0     3.23878   1.59575  -2.36945 
 Cl                   0     4.80136   1.72125  -3.10162 
 N                    -1   -3.32748   2.07508   1.06573 
 C                    0    -3.52558   1.93877  -0.26556 
 Cl                   0    -4.91801   2.56722  -1.07137 
 Zn                   0     0.12391  -0.07737  -0.04452 
 N                    0    -0.1604   -2.03586  -0.68088 
 C                    0    -0.88757  -3.0575   -0.13536 
 Cl                   0    -1.55156  -2.99624   1.43831 
 N                    0    -1.59507   0.93977   0.16591 
 C                    0    -2.48262   1.24976  -0.82691 
 Cl                   0    -2.22083   0.77824  -2.46837 
 N                    0     1.464     0.8538   -1.27282 
 C                    0     2.7299    0.53129  -1.67163 
 Cl                   0     3.46264  -0.98423  -1.29473 
 C                    0     0.1724   -2.45229  -1.90606 
 H                    0     0.75473  -1.85089  -2.58886 
 C                    0    -2.17388   1.4667    1.27732 
 H                    0    -1.71747   1.38162   2.2547 
 C                    0     1.28833   2.10741  -1.75676 
 H                    0     0.35979   2.64407  -1.61339 
 C                    0     2.348     0.43953   2.1067 
 C                    0     1.17132   1.07576   2.65961 
 O                    0     1.00791  -0.1141    1.81888 
 C                    0     3.2506   -0.42181   2.92706 
 H                    0     0.80808   2.00053   2.22572 
 H                    0     0.90927   0.90142   3.69827 
 H                    0     3.73416  -1.18461   2.31169 
 H                    0     2.69755  -0.90936   3.73304 
 H                    0     4.01275   0.23202   3.35896 
 H                    0     2.79137   0.91763   1.23935 
 N                    0     4.05547   5.56783  -0.17056 
 C                    0     4.16621   6.3063    1.15984 
 C                    0     5.49646   6.97109   1.47946 
 H                    0     3.91268   5.56892   1.93082 
 H                    0     3.38822   7.07203   1.13145 
 H                    0     5.40872   7.36248   2.49596 
 H                    0     6.33685   6.27933   1.47678 
 H                    0     5.72705   7.81429   0.82468 
 C                    0     4.77291   6.33785  -1.25052 
 C                    0     4.66359   5.76717  -2.65565 
 H                    0     5.81872   6.39486  -0.95514 
 H                    0     4.36528   7.35159  -1.21334 
 H                    0     5.20524   6.4392   -3.32622 
 H                    0     5.11609   4.77863  -2.74333 
 H                    0     3.63575   5.69902  -3.01274 
 C                    0     2.57845   5.48296  -0.54777 
 C                    0     1.63326   5.10289   0.58269 
 H                    0     2.51568   4.74948  -1.35255 
 H                    0     2.31811   6.46644  -0.94864 
 H                    0     0.68255   4.81041   0.12986 
 H                    0     2.00052   4.27482   1.19481 
 H                    0     1.43258   5.93633   1.25772 
 C                    0     4.5692    4.13726  -0.07185 
 C                    0     6.02113   3.95658   0.32574 
 H                    0     4.36182   3.68895  -1.04021 
 H                    0     3.96061   3.65333   0.69543 
 H                    0     6.25899   2.90329   0.15843 
 H                    0     6.72871   4.54421  -0.26528 
 H                    0     6.16004   4.14254   1.39138 
 Br                   0     3.67487   3.33185   3.2115 
 

 GradGradGradGradGradGradGradGradGradGradGradGradGradGradGradGradGradGrad
 Berny optimization.
 Initialization pass.
 No Z-matrix variables, so optimization will use Cartesian coordinates.
 Trust Radius=3.00D-01 FncErr=1.00D-07 GrdErr=1.00D-06 EigMax=2.50D+02 EigMin=1.00D-04
 Number of steps in this run=    208 maximum allowed number of steps=    396.
 GradGradGradGradGradGradGradGradGradGradGradGradGradGradGradGradGradGrad

 Symmetry turned off by external request.
 Stoichiometry    C20H29BrCl6LiN7OZn
 Framework group  C1[X(C20H29BrCl6LiN7OZn)]
 Deg. of freedom   192
 Full point group                 C1      NOp   1
                          Input orientation:                          
 ---------------------------------------------------------------------
 Center     Atomic      Atomic             Coordinates (Angstroms)
 Number     Number       Type             X           Y           Z
 ---------------------------------------------------------------------
      1          3           0       -0.656174   -5.038394   -3.457440
      2          7           0       -0.282792   -3.675582   -2.194684
      3          6           0       -0.953637   -4.051282   -1.067111
      4         17           0       -1.731583   -5.602165   -1.053326
      5          7           0        2.328228    2.599049   -2.419433
      6          6           0        3.238778    1.595748   -2.369454
      7         17           0        4.801357    1.721254   -3.101622
      8          7           0       -3.327483    2.075083    1.065729
      9          6           0       -3.525583    1.938769   -0.265560
     10         17           0       -4.918008    2.567220   -1.071365
     11         30           0        0.123905   -0.077366   -0.044522
     12          7           0       -0.160404   -2.035861   -0.680881
     13          6           0       -0.887566   -3.057498   -0.135355
     14         17           0       -1.551563   -2.996238    1.438308
     15          7           0       -1.595069    0.939769    0.165911
     16          6           0       -2.482620    1.249755   -0.826907
     17         17           0       -2.220829    0.778237   -2.468373
     18          7           0        1.464001    0.853801   -1.272818
     19          6           0        2.729895    0.531291   -1.671634
     20         17           0        3.462644   -0.984226   -1.294727
     21          6           0        0.172403   -2.452286   -1.906060
     22          1           0        0.754734   -1.850892   -2.588858
     23          6           0       -2.173883    1.466703    1.277324
     24          1           0       -1.717466    1.381619    2.254705
     25          6           0        1.288331    2.107408   -1.756755
     26          1           0        0.359794    2.644074   -1.613394
     27          6           0        2.347996    0.439525    2.106702
     28          6           0        1.171323    1.075761    2.659605
     29          8           0        1.007905   -0.114103    1.818881
     30          6           0        3.250604   -0.421812    2.927064
     31          1           0        0.808081    2.000532    2.225716
     32          1           0        0.909270    0.901422    3.698272
     33          1           0        3.734157   -1.184608    2.311692
     34          1           0        2.697552   -0.909359    3.733037
     35          1           0        4.012754    0.232021    3.358961
     36          1           0        2.791366    0.917628    1.239353
     37          7           0        4.055473    5.567828   -0.170558
     38          6           0        4.166208    6.306301    1.159844
     39          6           0        5.496464    6.971094    1.479462
     40          1           0        3.912676    5.568916    1.930819
     41          1           0        3.388215    7.072028    1.131447
     42          1           0        5.408721    7.362480    2.495964
     43          1           0        6.336853    6.279329    1.476776
     44          1           0        5.727053    7.814294    0.824678
     45          6           0        4.772907    6.337851   -1.250515
     46          6           0        4.663590    5.767167   -2.655652
     47          1           0        5.818721    6.394858   -0.955141
     48          1           0        4.365276    7.351593   -1.213337
     49          1           0        5.205245    6.439196   -3.326225
     50          1           0        5.116088    4.778630   -2.743333
     51          1           0        3.635746    5.699015   -3.012741
     52          6           0        2.578449    5.482956   -0.547772
     53          6           0        1.633259    5.102886    0.582687
     54          1           0        2.515677    4.749482   -1.352550
     55          1           0        2.318114    6.466438   -0.948639
     56          1           0        0.682548    4.810407    0.129856
     57          1           0        2.000517    4.274815    1.194810
     58          1           0        1.432580    5.936334    1.257720
     59          6           0        4.569201    4.137264   -0.071846
     60          6           0        6.021128    3.956578    0.325742
     61          1           0        4.361820    3.688952   -1.040212
     62          1           0        3.960605    3.653328    0.695429
     63          1           0        6.258993    2.903286    0.158433
     64          1           0        6.728711    4.544212   -0.265284
     65          1           0        6.160037    4.142538    1.391379
     66         35           0        3.674869    3.331848    3.211501
 ---------------------------------------------------------------------
 Rotational constants (GHZ):           0.0872022           0.0398946           0.0373906
 General basis read from cards:  (5D, 7F)
 ======================================================================================================
                                       Pseudopotential Parameters
 ======================================================================================================
  Center     Atomic      Valence      Angular      Power
  Number     Number     Electrons     Momentum     of R      Exponent        Coefficient   SO-Coeffient
 ======================================================================================================
    1          3
                                   No pseudopotential on this center.
    2          7
                                   No pseudopotential on this center.
    3          6
                                   No pseudopotential on this center.
    4         17
                                   No pseudopotential on this center.
    5          7
                                   No pseudopotential on this center.
    6          6
                                   No pseudopotential on this center.
    7         17
                                   No pseudopotential on this center.
    8          7
                                   No pseudopotential on this center.
    9          6
                                   No pseudopotential on this center.
   10         17
                                   No pseudopotential on this center.
   11         30           12
                                      F and up 
                                                     1      386.7379660      -18.00000000    0.00000000
                                                     2       72.8587359     -124.35274030    0.00000000
                                                     2       15.9066170      -30.66018220    0.00000000
                                                     2        4.3502340      -10.63589890    0.00000000
                                                     2        1.2842199       -0.76836230    0.00000000
                                      S - F
                                                     0       19.0867858        3.00000000    0.00000000
                                                     1        5.0231080       22.52342250    0.00000000
                                                     2        1.2701744       48.44659420    0.00000000
                                                     2        1.0671287      -44.55601190    0.00000000
                                                     2        0.9264190       12.99839580    0.00000000
                                      P - F
                                                     0       43.4927750        5.00000000    0.00000000
                                                     1       20.8692669       20.74355890    0.00000000
                                                     2       21.7118378       90.30271580    0.00000000
                                                     2        6.3616915       74.66103160    0.00000000
                                                     2        1.2291195        9.88944240    0.00000000
                                      D - F
                                                     2       13.5851800       -4.84903590    0.00000000
                                                     2        9.8373050        3.69133790    0.00000000
                                                     2        0.8373113       -0.50373190    0.00000000
   12          7
                                   No pseudopotential on this center.
   13          6
                                   No pseudopotential on this center.
   14         17
                                   No pseudopotential on this center.
   15          7
                                   No pseudopotential on this center.
   16          6
                                   No pseudopotential on this center.
   17         17
                                   No pseudopotential on this center.
   18          7
                                   No pseudopotential on this center.
   19          6
                                   No pseudopotential on this center.
   20         17
                                   No pseudopotential on this center.
   21          6
                                   No pseudopotential on this center.
   22          1
                                   No pseudopotential on this center.
   23          6
                                   No pseudopotential on this center.
   24          1
                                   No pseudopotential on this center.
   25          6
                                   No pseudopotential on this center.
   26          1
                                   No pseudopotential on this center.
   27          6
                                   No pseudopotential on this center.
   28          6
                                   No pseudopotential on this center.
   29          8
                                   No pseudopotential on this center.
   30          6
                                   No pseudopotential on this center.
   31          1
                                   No pseudopotential on this center.
   32          1
                                   No pseudopotential on this center.
   33          1
                                   No pseudopotential on this center.
   34          1
                                   No pseudopotential on this center.
   35          1
                                   No pseudopotential on this center.
   36          1
                                   No pseudopotential on this center.
   37          7
                                   No pseudopotential on this center.
   38          6
                                   No pseudopotential on this center.
   39          6
                                   No pseudopotential on this center.
   40          1
                                   No pseudopotential on this center.
   41          1
                                   No pseudopotential on this center.
   42          1
                                   No pseudopotential on this center.
   43          1
                                   No pseudopotential on this center.
   44          1
                                   No pseudopotential on this center.
   45          6
                                   No pseudopotential on this center.
   46          6
                                   No pseudopotential on this center.
   47          1
                                   No pseudopotential on this center.
   48          1
                                   No pseudopotential on this center.
   49          1
                                   No pseudopotential on this center.
   50          1
                                   No pseudopotential on this center.
   51          1
                                   No pseudopotential on this center.
   52          6
                                   No pseudopotential on this center.
   53          6
                                   No pseudopotential on this center.
   54          1
                                   No pseudopotential on this center.
   55          1
                                   No pseudopotential on this center.
   56          1
                                   No pseudopotential on this center.
   57          1
                                   No pseudopotential on this center.
   58          1
                                   No pseudopotential on this center.
   59          6
                                   No pseudopotential on this center.
   60          6
                                   No pseudopotential on this center.
   61          1
                                   No pseudopotential on this center.
   62          1
                                   No pseudopotential on this center.
   63          1
                                   No pseudopotential on this center.
   64          1
                                   No pseudopotential on this center.
   65          1
                                   No pseudopotential on this center.
   66         35
                                   No pseudopotential on this center.
 ======================================================================================================
   705 basis functions,  1449 primitive gaussians,   744 cartesian basis functions
   179 alpha electrons      179 beta electrons
       nuclear repulsion energy      6489.5139003497 Hartrees.
 NAtoms=   66 NActive=   66 NUniq=   66 SFac= 1.00D+00 NAtFMM=   60 NAOKFM=T Big=T
 Integral buffers will be    131072 words long.
 Raffenetti 2 integral format.
 Two-electron integral symmetry is turned off.
 One-electron integrals computed using PRISM.
   1 Symmetry operations used in ECPInt.
 ECPInt:  NShTT=   31626 NPrTT=  185399 LenC2=   23303 LenP2D=   70549.
 LDataN:  DoStor=T MaxTD1= 5 Len=  102
 NBasis=   705 RedAO= T EigKep=  1.36D-03  NBF=   705
 NBsUse=   705 1.00D-06 EigRej= -1.00D+00 NBFU=   705
 ExpMin= 3.51D-02 ExpMax= 5.74D+05 ExpMxC= 5.74D+03 IAcc=3 IRadAn=         5 AccDes= 0.00D+00
 Harris functional with IExCor=20419 and IRadAn=       5 diagonalized for initial guess.
 HarFok:  IExCor=20419 AccDes= 0.00D+00 IRadAn=         5 IDoV= 1 UseB2=F ITyADJ=14
 ICtDFT=  3500011 ScaDFX=  1.000000  1.000000  1.000000  1.000000
 FoFCou: FMM=F IPFlag=           0 FMFlag=      100000 FMFlg1=        2001
         NFxFlg=           0 DoJE=T BraDBF=F KetDBF=T FulRan=T
         wScrn=  0.000000 ICntrl=       500 IOpCl=  0 I1Cent=   200000004 NGrid=           0
         NMat0=    1 NMatS0=      1 NMatT0=    0 NMatD0=    1 NMtDS0=    0 NMtDT0=    0
 Symmetry not used in FoFCou.
 Gradient too large for Newton-Raphson -- use scaled steepest descent instead.
 Gradient too large for Newton-Raphson -- use scaled steepest descent instead.
     Accept linear search using points  2 and  3.
 Gradient too large for Newton-Raphson -- use scaled steepest descent instead.
 Gradient too large for Newton-Raphson -- use scaled steepest descent instead.
     Minimum is close to point  2 DX=  3.00D-02 DF= -4.48D-06 DXR=  4.77D-02 DFR=  2.28D-03 which will be used.
 Gradient too large for Newton-Raphson -- use scaled steepest descent instead.
 Gradient too large for Newton-Raphson -- use scaled steepest descent instead.
     Accept linear search using points  1 and  2.
 LinEq1:  Iter=  0 NonCon=     1 RMS=2.69D-05 Max=2.18D-03 NDo=     1
 AX will form     1 AO Fock derivatives at one time.
 LinEq1:  Iter=  1 NonCon=     1 RMS=1.06D-05 Max=5.38D-04 NDo=     1
 LinEq1:  Iter=  2 NonCon=     1 RMS=3.38D-06 Max=1.71D-04 NDo=     1
 LinEq1:  Iter=  3 NonCon=     1 RMS=1.97D-06 Max=1.44D-04 NDo=     1
 LinEq1:  Iter=  4 NonCon=     1 RMS=9.29D-07 Max=7.02D-05 NDo=     1
 LinEq1:  Iter=  5 NonCon=     1 RMS=4.43D-07 Max=2.81D-05 NDo=     1
 LinEq1:  Iter=  6 NonCon=     1 RMS=2.51D-07 Max=1.57D-05 NDo=     1
 LinEq1:  Iter=  7 NonCon=     1 RMS=1.06D-07 Max=6.84D-06 NDo=     1
 LinEq1:  Iter=  8 NonCon=     1 RMS=5.57D-08 Max=2.53D-06 NDo=     1
 LinEq1:  Iter=  9 NonCon=     1 RMS=2.55D-08 Max=1.62D-06 NDo=     1
 LinEq1:  Iter= 10 NonCon=     1 RMS=1.61D-08 Max=8.96D-07 NDo=     1
 LinEq1:  Iter= 11 NonCon=     0 RMS=6.19D-09 Max=2.85D-07 NDo=     1
 Linear equations converged to 4.339D-08 4.339D-07 after    11 iterations.
     Accept linear search using points  1 and  2.
     Minimum is close to point  2 DX= -1.78D-05 DF=  0.00D+00 DXR=  1.78D-05 DFR=  0.00D+00 which will be used.
 LinEq1:  Iter=  0 NonCon=     1 RMS=3.77D-08 Max=2.52D-06 NDo=     1
 LinEq1:  Iter=  1 NonCon=     1 RMS=2.30D-08 Max=1.65D-06 NDo=     1
 LinEq1:  Iter=  2 NonCon=     1 RMS=1.24D-08 Max=6.32D-07 NDo=     1
 LinEq1:  Iter=  3 NonCon=     1 RMS=4.74D-09 Max=3.16D-07 NDo=     1
 LinEq1:  Iter=  4 NonCon=     1 RMS=2.88D-09 Max=2.07D-07 NDo=     1
 LinEq1:  Iter=  5 NonCon=     1 RMS=1.32D-09 Max=1.27D-07 NDo=     1
 LinEq1:  Iter=  6 NonCon=     1 RMS=7.16D-10 Max=6.51D-08 NDo=     1
 LinEq1:  Iter=  7 NonCon=     1 RMS=4.53D-10 Max=4.37D-08 NDo=     1
 LinEq1:  Iter=  8 NonCon=     1 RMS=2.26D-10 Max=1.56D-08 NDo=     1
 LinEq1:  Iter=  9 NonCon=     1 RMS=8.48D-11 Max=3.91D-09 NDo=     1
 LinEq1:  Iter= 10 NonCon=     1 RMS=4.18D-11 Max=2.28D-09 NDo=     1
 LinEq1:  Iter= 11 NonCon=     0 RMS=2.04D-11 Max=1.16D-09 NDo=     1
 Linear equations converged to 1.170D-10 1.170D-09 after    11 iterations.
 SCF Done:  E(RCAM-B3LYP) =  -6643.23700595     a.u. after    9 cycles
            Convg  =    0.3449D-09                    42 Fock formations.
              S**2 =  0.0000                  -V/T =  1.9946
 DoSCS=F DFT=T ScalE2(SS,OS)=  1.000000  1.000000
 Range of M.O.s used for correlation:     1   705
 NBasis=   705 NAE=   179 NBE=   179 NFC=     0 NFV=     0
 NROrb=    705 NOA=   179 NOB=   179 NVA=   526 NVB=   526
   1 Symmetry operations used in ECPInt.
 ECPInt:  NShTT=   31626 NPrTT=  185399 LenC2=   23303 LenP2D=   70549.
 LDataN:  DoStor=T MaxTD1= 6 Len=  172
 Number of processors reduced to  12 by ecpmxn.
 Symmetrizing basis deriv contribution to polar:
 IMax=3 JMax=2 DiffMx= 0.00D+00
 G2DrvN: will do    67 centers at a time, making    1 passes.
 Calling FoFCou, ICntrl=  3107 FMM=T I1Cent=   0 AccDes= 0.00D+00.
 End of G2Drv F.D. properties file   721 does not exist.
 End of G2Drv F.D. properties file   722 does not exist.
 End of G2Drv F.D. properties file   788 does not exist.
          IDoAtm=00110110111111111111111111111111111111111111111111
          IDoAtm=1111111111111111
          Differentiating once with respect to electric field.
                with respect to dipole field.
          Differentiating once with respect to nuclear coordinates.
 CalDSu exits because no D1Ps are significant.
          There are   189 degrees of freedom in the 1st order CPHF.  IDoFFX=6 NUNeed=     3.
    189 vectors produced by pass  0 Test12= 9.42D-14 1.00D-09 XBig12= 1.68D+02 2.60D+00.
 AX will form    96 AO Fock derivatives at one time.
    189 vectors produced by pass  1 Test12= 9.42D-14 1.00D-09 XBig12= 2.01D+01 6.21D-01.
    189 vectors produced by pass  2 Test12= 9.42D-14 1.00D-09 XBig12= 4.97D-01 1.00D-01.
    189 vectors produced by pass  3 Test12= 9.42D-14 1.00D-09 XBig12= 1.15D-02 1.94D-02.
    189 vectors produced by pass  4 Test12= 9.42D-14 1.00D-09 XBig12= 1.07D-04 2.02D-03.
    189 vectors produced by pass  5 Test12= 9.42D-14 1.00D-09 XBig12= 5.85D-07 1.16D-04.
    116 vectors produced by pass  6 Test12= 9.42D-14 1.00D-09 XBig12= 2.65D-09 6.70D-06.
     40 vectors produced by pass  7 Test12= 9.42D-14 1.00D-09 XBig12= 1.14D-11 4.28D-07.
      3 vectors produced by pass  8 Test12= 9.42D-14 1.00D-09 XBig12= 4.81D-14 2.09D-08.
      1 vectors produced by pass  9 Test12= 9.42D-14 1.00D-09 XBig12= 2.05D-16 1.07D-09.
 InvSVY:  IOpt=1 It=  1 EMax= 7.11D-15
 Solved reduced A of dimension  1294 with   189 vectors.
 Isotropic polarizability for W=    0.000000      343.26 Bohr**3.
 End of Minotr F.D. properties file   721 does not exist.
 End of Minotr F.D. properties file   722 does not exist.
 End of Minotr F.D. properties file   788 does not exist.

 **********************************************************************

            Population analysis using the SCF density.

 **********************************************************************

 Alpha  occ. eigenvalues -- -482.57884-101.66139-101.62448-101.60908-101.59809
 Alpha  occ. eigenvalues -- -101.59268-101.56807 -61.66016 -56.22811 -56.22782
 Alpha  occ. eigenvalues --  -56.22762 -19.25783 -14.52944 -14.44551 -14.44501
 Alpha  occ. eigenvalues --  -14.41416 -14.39738 -14.38273 -14.35516 -10.36010
 Alpha  occ. eigenvalues --  -10.35807 -10.34017 -10.32751 -10.32128 -10.31520
 Alpha  occ. eigenvalues --  -10.31311 -10.31108 -10.30981 -10.30646 -10.30016
 Alpha  occ. eigenvalues --  -10.29362 -10.29291 -10.28902 -10.27358 -10.27191
 Alpha  occ. eigenvalues --  -10.26663 -10.25173 -10.24820 -10.23819  -9.59351
 Alpha  occ. eigenvalues --   -9.55635  -9.54083  -9.53014  -9.52443  -9.50072
 Alpha  occ. eigenvalues --   -8.44048  -7.35746  -7.34859  -7.34737  -7.32116
 Alpha  occ. eigenvalues --   -7.31044  -7.31036  -7.30521  -7.29519  -7.29516
 Alpha  occ. eigenvalues --   -7.29443  -7.28871  -7.28464  -7.28437  -7.27892
 Alpha  occ. eigenvalues --   -7.27872  -7.26506  -7.25506  -7.25490  -6.45017
 Alpha  occ. eigenvalues --   -6.44979  -6.44948  -2.57312  -2.57307  -2.57281
 Alpha  occ. eigenvalues --   -2.57251  -2.57248  -2.16337  -1.15984  -1.13319
 Alpha  occ. eigenvalues --   -1.09698  -1.08697  -1.06568  -1.00897  -0.98381
 Alpha  occ. eigenvalues --   -0.95913  -0.94638  -0.93908  -0.93548  -0.92230
 Alpha  occ. eigenvalues --   -0.89499  -0.88327  -0.87259  -0.87221  -0.86549
 Alpha  occ. eigenvalues --   -0.82917  -0.82161  -0.82053  -0.77731  -0.75828
 Alpha  occ. eigenvalues --   -0.75538  -0.74924  -0.73897  -0.72230  -0.70266
 Alpha  occ. eigenvalues --   -0.68862  -0.68778  -0.68258  -0.67963  -0.67813
 Alpha  occ. eigenvalues --   -0.67171  -0.66777  -0.66569  -0.65192  -0.64748
 Alpha  occ. eigenvalues --   -0.62948  -0.62290  -0.61386  -0.60337  -0.59876
 Alpha  occ. eigenvalues --   -0.59356  -0.59295  -0.57400  -0.56814  -0.55430
 Alpha  occ. eigenvalues --   -0.55223  -0.54739  -0.53980  -0.53504  -0.53407
 Alpha  occ. eigenvalues --   -0.51672  -0.51314  -0.50719  -0.50100  -0.49252
 Alpha  occ. eigenvalues --   -0.48973  -0.48787  -0.48592  -0.48262  -0.47326
 Alpha  occ. eigenvalues --   -0.47264  -0.47006  -0.46892  -0.46845  -0.45898
 Alpha  occ. eigenvalues --   -0.45865  -0.45677  -0.45191  -0.45030  -0.44768
 Alpha  occ. eigenvalues --   -0.44636  -0.44220  -0.43629  -0.43493  -0.43177
 Alpha  occ. eigenvalues --   -0.42729  -0.42625  -0.42242  -0.41650  -0.41241
 Alpha  occ. eigenvalues --   -0.40924  -0.40719  -0.40467  -0.39965  -0.39542
 Alpha  occ. eigenvalues --   -0.39128  -0.38789  -0.37980  -0.37634  -0.37479
 Alpha  occ. eigenvalues --   -0.37141  -0.36585  -0.35857  -0.34143  -0.33277
 Alpha  occ. eigenvalues --   -0.31685  -0.30523  -0.29958  -0.29399  -0.26018
 Alpha  occ. eigenvalues --   -0.23813  -0.22812  -0.22622  -0.22586
 Alpha virt. eigenvalues --   -0.06048  -0.00238   0.00500   0.04576   0.05051
 Alpha virt. eigenvalues --    0.05455   0.07240   0.08054   0.08566   0.09016
 Alpha virt. eigenvalues --    0.09646   0.09966   0.10210   0.10580   0.11185
 Alpha virt. eigenvalues --    0.11722   0.11841   0.12237   0.12434   0.12614
 Alpha virt. eigenvalues --    0.13004   0.13188   0.13757   0.14302   0.14582
 Alpha virt. eigenvalues --    0.14786   0.14995   0.15465   0.15751   0.16578
 Alpha virt. eigenvalues --    0.16779   0.17395   0.17776   0.18770   0.18870
 Alpha virt. eigenvalues --    0.19068   0.19953   0.20206   0.20452   0.21191
 Alpha virt. eigenvalues --    0.21271   0.21624   0.21930   0.22139   0.22600
 Alpha virt. eigenvalues --    0.22869   0.23322   0.23670   0.23982   0.24635
 Alpha virt. eigenvalues --    0.24835   0.25303   0.25532   0.25816   0.26258
 Alpha virt. eigenvalues --    0.26566   0.26822   0.27362   0.27962   0.28403
 Alpha virt. eigenvalues --    0.29061   0.29373   0.29792   0.30457   0.31115
 Alpha virt. eigenvalues --    0.31531   0.32050   0.32335   0.32537   0.33345
 Alpha virt. eigenvalues --    0.33508   0.34142   0.35373   0.35961   0.37128
 Alpha virt. eigenvalues --    0.38276   0.38975   0.39709   0.39929   0.41143
 Alpha virt. eigenvalues --    0.41433   0.42006   0.42659   0.42960   0.43714
 Alpha virt. eigenvalues --    0.44675   0.46141   0.46560   0.46960   0.47234
 Alpha virt. eigenvalues --    0.48427   0.48577   0.49079   0.49401   0.50141
 Alpha virt. eigenvalues --    0.50297   0.50632   0.50806   0.50948   0.51457
 Alpha virt. eigenvalues --    0.52012   0.52677   0.52896   0.53500   0.53881
 Alpha virt. eigenvalues --    0.54117   0.54749   0.54888   0.55690   0.56122
 Alpha virt. eigenvalues --    0.57189   0.57265   0.57707   0.58280   0.58921
 Alpha virt. eigenvalues --    0.59520   0.59933   0.60158   0.60698   0.60984
 Alpha virt. eigenvalues --    0.61311   0.61670   0.62111   0.62664   0.63634
 Alpha virt. eigenvalues --    0.64328   0.64634   0.64819   0.65374   0.65600
 Alpha virt. eigenvalues --    0.65813   0.66090   0.66794   0.67251   0.67496
 Alpha virt. eigenvalues --    0.67895   0.68257   0.68406   0.68677   0.68915
 Alpha virt. eigenvalues --    0.69479   0.69993   0.70153   0.70377   0.70660
 Alpha virt. eigenvalues --    0.71172   0.71536   0.71702   0.72485   0.73078
 Alpha virt. eigenvalues --    0.73343   0.73648   0.74056   0.74995   0.75110
 Alpha virt. eigenvalues --    0.75626   0.76529   0.76790   0.77539   0.78239
 Alpha virt. eigenvalues --    0.78842   0.80063   0.80447   0.80664   0.81764
 Alpha virt. eigenvalues --    0.81885   0.82709   0.82969   0.83318   0.84199
 Alpha virt. eigenvalues --    0.84700   0.85514   0.86471   0.86735   0.87191
 Alpha virt. eigenvalues --    0.87515   0.87760   0.88181   0.88760   0.89369
 Alpha virt. eigenvalues --    0.89947   0.89997   0.90402   0.90452   0.90720
 Alpha virt. eigenvalues --    0.90814   0.91091   0.91352   0.91690   0.92051
 Alpha virt. eigenvalues --    0.92327   0.92431   0.92843   0.92940   0.92978
 Alpha virt. eigenvalues --    0.93305   0.93629   0.94058   0.94312   0.94692
 Alpha virt. eigenvalues --    0.94821   0.95108   0.95284   0.95773   0.96072
 Alpha virt. eigenvalues --    0.96416   0.96568   0.97001   0.97342   0.97683
 Alpha virt. eigenvalues --    0.97979   0.98792   0.98990   0.99108   0.99535
 Alpha virt. eigenvalues --    1.00068   1.00323   1.00555   1.00904   1.01104
 Alpha virt. eigenvalues --    1.01514   1.01631   1.02520   1.02970   1.03721
 Alpha virt. eigenvalues --    1.04254   1.04323   1.04471   1.04661   1.04876
 Alpha virt. eigenvalues --    1.05257   1.05618   1.06259   1.07183   1.07342
 Alpha virt. eigenvalues --    1.08070   1.08152   1.08494   1.08828   1.09348
 Alpha virt. eigenvalues --    1.10102   1.10565   1.11243   1.11382   1.12113
 Alpha virt. eigenvalues --    1.12265   1.12715   1.13649   1.13920   1.14316
 Alpha virt. eigenvalues --    1.16131   1.16537   1.16862   1.18707   1.19784
 Alpha virt. eigenvalues --    1.20883   1.21576   1.22882   1.23264   1.24382
 Alpha virt. eigenvalues --    1.24878   1.25754   1.26368   1.28576   1.29181
 Alpha virt. eigenvalues --    1.30742   1.30919   1.31305   1.32455   1.33880
 Alpha virt. eigenvalues --    1.35788   1.36504   1.37600   1.37806   1.38764
 Alpha virt. eigenvalues --    1.39444   1.40274   1.41293   1.42201   1.43082
 Alpha virt. eigenvalues --    1.43818   1.45027   1.45955   1.46328   1.47115
 Alpha virt. eigenvalues --    1.47219   1.48557   1.48917   1.49407   1.49787
 Alpha virt. eigenvalues --    1.50408   1.51446   1.51621   1.53387   1.54309
 Alpha virt. eigenvalues --    1.54426   1.56472   1.59212   1.59727   1.60537
 Alpha virt. eigenvalues --    1.61244   1.62399   1.62877   1.63145   1.63432
 Alpha virt. eigenvalues --    1.64647   1.65374   1.65828   1.66420   1.67058
 Alpha virt. eigenvalues --    1.67721   1.68397   1.68825   1.69023   1.69855
 Alpha virt. eigenvalues --    1.70243   1.70606   1.72249   1.72412   1.73540
 Alpha virt. eigenvalues --    1.73963   1.75014   1.75942   1.77224   1.78646
 Alpha virt. eigenvalues --    1.79975   1.81517   1.84072   1.84576   1.88445
 Alpha virt. eigenvalues --    1.89133   1.90392   1.90639   1.91053   1.92406
 Alpha virt. eigenvalues --    1.94072   1.94409   1.94894   1.95447   1.95621
 Alpha virt. eigenvalues --    1.96477   1.97157   1.98079   1.99223   1.99604
 Alpha virt. eigenvalues --    2.00100   2.00890   2.02847   2.04501   2.05074
 Alpha virt. eigenvalues --    2.05203   2.06166   2.07599   2.07937   2.08242
 Alpha virt. eigenvalues --    2.09213   2.10211   2.10312   2.10613   2.11730
 Alpha virt. eigenvalues --    2.12012   2.12575   2.12801   2.12977   2.13238
 Alpha virt. eigenvalues --    2.13661   2.14329   2.14678   2.15582   2.16304
 Alpha virt. eigenvalues --    2.16910   2.17172   2.17309   2.17730   2.18491
 Alpha virt. eigenvalues --    2.18954   2.19256   2.19566   2.20137   2.20431
 Alpha virt. eigenvalues --    2.20978   2.22392   2.22649   2.23485   2.24015
 Alpha virt. eigenvalues --    2.24669   2.25245   2.25674   2.27235   2.27816
 Alpha virt. eigenvalues --    2.28395   2.28706   2.30051   2.30509   2.32463
 Alpha virt. eigenvalues --    2.32681   2.32727   2.33484   2.34033   2.34762
 Alpha virt. eigenvalues --    2.35091   2.35883   2.36044   2.36576   2.37336
 Alpha virt. eigenvalues --    2.38060   2.38757   2.39642   2.40365   2.40645
 Alpha virt. eigenvalues --    2.40980   2.41888   2.42244   2.44683   2.46321
 Alpha virt. eigenvalues --    2.46998   2.47771   2.48159   2.49320   2.49502
 Alpha virt. eigenvalues --    2.51822   2.52265   2.53569   2.54551   2.56136
 Alpha virt. eigenvalues --    2.58300   2.58785   2.61076   2.63195   2.63504
 Alpha virt. eigenvalues --    2.65537   2.65695   2.65854   2.66387   2.67318
 Alpha virt. eigenvalues --    2.67788   2.68463   2.69148   2.69709   2.70061
 Alpha virt. eigenvalues --    2.70287   2.70603   2.71501   2.71782   2.72180
 Alpha virt. eigenvalues --    2.73649   2.74539   2.75071   2.75739   2.76112
 Alpha virt. eigenvalues --    2.77705   2.78056   2.79623   2.79764   2.80446
 Alpha virt. eigenvalues --    2.80640   2.81645   2.82746   2.83985   2.84491
 Alpha virt. eigenvalues --    2.85397   2.86083   2.86728   2.87418   2.88140
 Alpha virt. eigenvalues --    2.88306   2.89290   2.90012   2.90810   2.91117
 Alpha virt. eigenvalues --    2.91930   2.92055   2.92267   2.93238   2.93706
 Alpha virt. eigenvalues --    2.95088   2.95704   2.96782   2.97584   2.97839
 Alpha virt. eigenvalues --    2.97983   2.98062   2.98718   2.99167   3.00811
 Alpha virt. eigenvalues --    3.02525   3.03556   3.03794   3.04662   3.05537
 Alpha virt. eigenvalues --    3.07089   3.12227   3.18642   3.23453   3.25774
 Alpha virt. eigenvalues --    3.27029   3.28309   3.30257   3.30407   3.31834
 Alpha virt. eigenvalues --    3.36654   3.39299   3.39556   3.40437   3.46005
 Alpha virt. eigenvalues --    3.47364   3.48250   3.50146   3.51585   3.51869
 Alpha virt. eigenvalues --    3.52881   3.53234   3.54286   3.55126   3.56594
 Alpha virt. eigenvalues --    3.58143   3.58319   3.60376   3.61723   3.62045
 Alpha virt. eigenvalues --    3.62747   3.64310   3.64713   3.68610   8.70268
 Alpha virt. eigenvalues --    9.06673
          Condensed to atoms (all electrons):
 Mulliken charges:
               1
     1  Li   0.615807
     2  N   -0.500014
     3  C    0.058910
     4  Cl   0.055264
     5  N   -0.399805
     6  C   -0.001874
     7  Cl  -0.027100
     8  N   -0.364112
     9  C    0.009670
    10  Cl  -0.027070
    11  Zn   1.048092
    12  N   -0.540564
    13  C    0.058488
    14  Cl   0.063184
    15  N   -0.590417
    16  C    0.037656
    17  Cl  -0.022651
    18  N   -0.577066
    19  C    0.026886
    20  Cl  -0.009184
    21  C    0.237495
    22  H    0.152493
    23  C    0.168596
    24  H    0.096896
    25  C    0.183260
    26  H    0.124198
    27  C    0.164979
    28  C    0.016518
    29  O   -0.567239
    30  C   -0.333461
    31  H    0.154649
    32  H    0.142732
    33  H    0.115875
    34  H    0.109830
    35  H    0.168762
    36  H    0.147375
    37  N   -0.377236
    38  C   -0.073753
    39  C   -0.340041
    40  H    0.201865
    41  H    0.121779
    42  H    0.142488
    43  H    0.132691
    44  H    0.105551
    45  C   -0.059521
    46  C   -0.345644
    47  H    0.142051
    48  H    0.129303
    49  H    0.122217
    50  H    0.150965
    51  H    0.146039
    52  C   -0.087040
    53  C   -0.349281
    54  H    0.180188
    55  H    0.117764
    56  H    0.126967
    57  H    0.172341
    58  H    0.118692
    59  C   -0.075703
    60  C   -0.342752
    61  H    0.144514
    62  H    0.178216
    63  H    0.138331
    64  H    0.092573
    65  H    0.160276
    66  Br  -0.770900
 Sum of Mulliken charges =   0.00000
 Mulliken charges with hydrogens summed into heavy atoms:
               1
     1  Li   0.615807
     2  N   -0.500014
     3  C    0.058910
     4  Cl   0.055264
     5  N   -0.399805
     6  C   -0.001874
     7  Cl  -0.027100
     8  N   -0.364112
     9  C    0.009670
    10  Cl  -0.027070
    11  Zn   1.048092
    12  N   -0.540564
    13  C    0.058488
    14  Cl   0.063184
    15  N   -0.590417
    16  C    0.037656
    17  Cl  -0.022651
    18  N   -0.577066
    19  C    0.026886
    20  Cl  -0.009184
    21  C    0.389988
    23  C    0.265493
    25  C    0.307458
    27  C    0.312353
    28  C    0.313899
    29  O   -0.567239
    30  C    0.061006
    37  N   -0.377236
    38  C    0.249891
    39  C    0.040689
    45  C    0.211834
    46  C    0.073577
    52  C    0.210912
    53  C    0.068719
    59  C    0.247026
    60  C    0.048428
    66  Br  -0.770900
 Electronic spatial extent (au):  <R**2>=          33649.3900
 Charge=              0.0000 electrons
 Dipole moment (field-independent basis, Debye):
    X=              4.6071    Y=             -8.6165    Z=            -11.8331  Tot=             15.3457
 Quadrupole moment (field-independent basis, Debye-Ang):
   XX=           -301.2030   YY=           -164.9520   ZZ=           -271.3981
   XY=             48.6647   XZ=            -12.6656   YZ=             24.4924
 Traceless Quadrupole moment (field-independent basis, Debye-Ang):
   XX=            -55.3519   YY=             80.8990   ZZ=            -25.5470
   XY=             48.6647   XZ=            -12.6656   YZ=             24.4924
 Octapole moment (field-independent basis, Debye-Ang**2):
  XXX=           -785.4324  YYY=           -890.6782  ZZZ=              3.3547  XYY=            -61.6074
  XXY=           -251.0568  XXZ=            -23.9860  XZZ=           -458.0570  YZZ=           -644.2082
  YYZ=           -301.6546  XYZ=           -132.1298
 Hexadecapole moment (field-independent basis, Debye-Ang**3):
 XXXX=         -17070.0123 YYYY=         -14479.6663 ZZZZ=          -5678.9543 XXXY=          -3978.9853
 XXXZ=           -545.0857 YYYX=          -2735.9458 YYYZ=            563.9837 ZZZX=           -437.2070
 ZZZY=             -7.7518 XXYY=          -4912.7010 XXZZ=          -4320.6528 YYZZ=          -3461.0377
 XXYZ=           -599.1699 YYXZ=           -273.2525 ZZXY=          -1877.9934
 N-N= 6.489513900350D+03 E-N=-2.882897638326D+04  KE= 6.679202081931D+03
  Exact polarizability: 342.079  15.164 360.983 -15.510   2.316 326.731
 Approx polarizability: 398.009 -10.230 405.076 -26.718  -0.211 413.335
   1 Symmetry operations used in ECPInt.
 ECPInt:  NShTT=   31626 NPrTT=  185399 LenC2=   23303 LenP2D=   70549.
 LDataN:  DoStor=T MaxTD1= 7 Len=  274
 Calling FoFJK, ICntrl=    100127 FMM=F ISym2X=0 I1Cent= 0 IOpClX= 0 NMat=1 NMatS=1 NMatT=0.
 -------------------------------------------------------------------
 Center     Atomic                   Forces (Hartrees/Bohr)
 Number     Number              X              Y              Z
 -------------------------------------------------------------------
      1        3          -0.000000000   -0.000000000   -0.000000000
      2        7          -0.000000000   -0.000000000   -0.000000000
      3        6           0.000000227    0.000000450    0.000000039
      4       17          -0.000000076   -0.000000171   -0.000000000
      5        7          -0.000000000   -0.000000000   -0.000000000
      6        6          -0.000000742   -0.000000436    0.000000520
      7       17           0.000000269    0.000000059   -0.000000136
      8        7          -0.000000000   -0.000000000   -0.000000000
      9        6           0.000000308   -0.000000094    0.000000217
     10       17          -0.000000226    0.000000102   -0.000000117
     11       30          -0.000000026    0.000000000    0.000000009
     12        7          -0.000000241   -0.000000327    0.000000150
     13        6           0.000000174    0.000000289   -0.000000182
     14       17          -0.000000040   -0.000000022    0.000000072
     15        7           0.000000590   -0.000000326   -0.000000131
     16        6          -0.000000456    0.000000098   -0.000000617
     17       17           0.000000015    0.000000051    0.000000251
     18        7          -0.000000213   -0.000000249    0.000000194
     19        6           0.000000213    0.000000809   -0.000000459
     20       17           0.000000132   -0.000000291    0.000000079
     21        6          -0.000000188   -0.000000445    0.000000253
     22        1           0.000000065    0.000000068   -0.000000193
     23        6           0.000000151   -0.000000053    0.000000547
     24        1           0.000000027    0.000000031    0.000000058
     25        6           0.000000565    0.000000325   -0.000000359
     26        1          -0.000000075   -0.000000018    0.000000037
     27        6          -0.000000525    0.000000308    0.000000050
     28        6           0.000000124   -0.000000497   -0.000000098
     29        8           0.000000225    0.000000110    0.000000248
     30        6          -0.000000487   -0.000000520    0.000000061
     31        1           0.000000013    0.000000168    0.000000006
     32        1           0.000000028    0.000000049   -0.000000154
     33        1           0.000000051   -0.000000029   -0.000000013
     34        1           0.000000163    0.000000156   -0.000000232
     35        1           0.000000323    0.000000279    0.000000175
     36        1           0.000000076   -0.000000034   -0.000000032
     37        7           0.000000203   -0.000000382   -0.000000151
     38        6          -0.000000138    0.000000704   -0.000000383
     39        6          -0.000000173    0.000000102    0.000000253
     40        1          -0.000000134   -0.000000232    0.000000312
     41        1           0.000000191   -0.000000238    0.000000123
     42        1           0.000000001   -0.000000093   -0.000000060
     43        1           0.000000232   -0.000000154    0.000000019
     44        1           0.000000011    0.000000096   -0.000000169
     45        6          -0.000000176   -0.000000269    0.000000143
     46        6           0.000000440   -0.000000013    0.000000419
     47        1           0.000000036    0.000000056   -0.000000038
     48        1           0.000000038    0.000000122   -0.000000050
     49        1           0.000000007    0.000000010   -0.000000124
     50        1          -0.000000069    0.000000094   -0.000000051
     51        1          -0.000000312   -0.000000020   -0.000000131
     52        6          -0.000000316   -0.000000620   -0.000000275
     53        6          -0.000000175    0.000000359   -0.000000507
     54        1           0.000000028    0.000000176    0.000000298
     55        1          -0.000000001    0.000000273    0.000000015
     56        1           0.000000278    0.000000102    0.000000115
     57        1           0.000000136   -0.000000357    0.000000252
     58        1          -0.000000073    0.000000011    0.000000048
     59        6           0.000000074    0.000000309   -0.000000433
     60        6           0.000000284    0.000000597   -0.000000476
     61        1          -0.000000046    0.000000065    0.000000103
     62        1          -0.000000171   -0.000000132    0.000000193
     63        1           0.000000044   -0.000000415   -0.000000033
     64        1          -0.000000269   -0.000000191    0.000000188
     65        1           0.000000035    0.000000037    0.000000389
     66       35           0.000000008    0.000000000    0.000000015
 -------------------------------------------------------------------
 Cartesian Forces:  Max     0.000000809 RMS     0.000000248

 GradGradGradGradGradGradGradGradGradGradGradGradGradGradGradGradGradGrad
 Berny optimization.
 Search for a local minimum.
 Step number   1 out of a maximum of  208
 All quantities printed in internal units (Hartrees-Bohrs-Radians)
 Second derivative matrix not updated -- analytic derivatives used.
 ITU=  0
     Eigenvalues ---    0.00001   0.00002   0.00006   0.00007   0.00009
     Eigenvalues ---    0.00012   0.00015   0.00025   0.00030   0.00036
     Eigenvalues ---    0.00045   0.00056   0.00097   0.00109   0.00123
     Eigenvalues ---    0.00136   0.00164   0.00185   0.00237   0.00249
     Eigenvalues ---    0.00276   0.00300   0.00341   0.00374   0.00380
     Eigenvalues ---    0.00413   0.00447   0.00484   0.00565   0.00576
     Eigenvalues ---    0.00649   0.00685   0.00743   0.00931   0.01176
     Eigenvalues ---    0.01260   0.01332   0.01363   0.01400   0.01420
     Eigenvalues ---    0.01451   0.01559   0.01912   0.02096   0.02437
     Eigenvalues ---    0.02564   0.02749   0.02781   0.02841   0.02870
     Eigenvalues ---    0.02913   0.03000   0.03166   0.03511   0.03634
     Eigenvalues ---    0.03809   0.03847   0.03935   0.03955   0.04022
     Eigenvalues ---    0.04464   0.04624   0.04912   0.05438   0.05706
     Eigenvalues ---    0.05776   0.05904   0.06203   0.06465   0.06644
     Eigenvalues ---    0.06714   0.06753   0.06931   0.07012   0.07133
     Eigenvalues ---    0.07230   0.07258   0.07422   0.07540   0.07760
     Eigenvalues ---    0.07970   0.08032   0.08197   0.08938   0.09302
     Eigenvalues ---    0.09580   0.09992   0.10044   0.10170   0.10389
     Eigenvalues ---    0.10479   0.10804   0.11472   0.11564   0.11584
     Eigenvalues ---    0.11662   0.11726   0.12711   0.13378   0.13963
     Eigenvalues ---    0.14009   0.14198   0.14231   0.14261   0.14409
     Eigenvalues ---    0.15324   0.15855   0.16295   0.16587   0.16617
     Eigenvalues ---    0.16834   0.17116   0.17156   0.19814   0.20725
     Eigenvalues ---    0.20831   0.20892   0.20923   0.20979   0.20986
     Eigenvalues ---    0.21222   0.22961   0.23438   0.23946   0.24242
     Eigenvalues ---    0.24589   0.27682   0.27948   0.28346   0.28742
     Eigenvalues ---    0.34049   0.34976   0.35071   0.35609   0.36886
     Eigenvalues ---    0.37260   0.44503   0.47271   0.47661   0.48527
     Eigenvalues ---    0.48922   0.51203   0.53505   0.55049   0.56171
     Eigenvalues ---    0.65064   0.65474   0.66681   0.66760   0.66873
     Eigenvalues ---    0.67234   0.67651   0.69091   0.79192   0.80294
     Eigenvalues ---    0.81712   0.82000   0.83837   0.84412   0.85273
     Eigenvalues ---    0.85422   0.85513   0.85855   0.85902   0.86091
     Eigenvalues ---    0.86906   0.89293   0.89644   0.91126   0.92586
     Eigenvalues ---    0.94120   0.94667   0.94789   0.94960   0.96731
     Eigenvalues ---    0.96891   0.97953   0.99124   1.01986   1.12681
     Eigenvalues ---    1.12939   1.15242   1.15797   1.16263   1.18895
     Eigenvalues ---    1.21466
 RFO step:  Lambda= 0.00000000D+00 EMin= 1.32491059D-05
 Linear search not attempted -- first point.
 Variable       Old X    -DE/DX   Delta X   Delta X   Delta X     New X
                                 (Linear)    (Quad)   (Total)
    X1       -1.23999  -0.00000   0.00000   0.00000   0.00000  -1.23999
    Y1       -9.52118  -0.00000   0.00000   0.00000   0.00000  -9.52118
    Z1       -6.53361  -0.00000   0.00000   0.00000   0.00000  -6.53361
    X2       -0.53440  -0.00000   0.00000   0.00000   0.00000  -0.53440
    Y2       -6.94584  -0.00000   0.00000   0.00000   0.00000  -6.94584
    Z2       -4.14735  -0.00000   0.00000   0.00000   0.00000  -4.14735
    X3       -1.80211   0.00000   0.00000  -0.00000  -0.00000  -1.80212
    Y3       -7.65581   0.00000   0.00000   0.00000   0.00000  -7.65581
    Z3       -2.01655   0.00000   0.00000  -0.00000  -0.00000  -2.01655
    X4       -3.27222  -0.00000   0.00000  -0.00001  -0.00001  -3.27223
    Y4      -10.58656  -0.00000   0.00000   0.00000   0.00000 -10.58655
    Z4       -1.99050  -0.00000   0.00000  -0.00000  -0.00000  -1.99050
    X5        4.39971  -0.00000   0.00000   0.00000   0.00000   4.39971
    Y5        4.91149  -0.00000   0.00000   0.00000   0.00000   4.91149
    Z5       -4.57207  -0.00000   0.00000   0.00000   0.00000  -4.57207
    X6        6.12040  -0.00000   0.00000   0.00000   0.00000   6.12040
    Y6        3.01553  -0.00000   0.00000   0.00000   0.00000   3.01553
    Z6       -4.47762   0.00000   0.00000   0.00000   0.00000  -4.47762
    X7        9.07325   0.00000   0.00000   0.00000   0.00000   9.07325
    Y7        3.25270   0.00000   0.00000   0.00000   0.00000   3.25270
    Z7       -5.86122  -0.00000   0.00000   0.00001   0.00001  -5.86121
    X8       -6.28803  -0.00000   0.00000   0.00000   0.00000  -6.28803
    Y8        3.92134  -0.00000   0.00000   0.00000   0.00000   3.92134
    Z8        2.01394  -0.00000   0.00000   0.00000   0.00000   2.01394
    X9       -6.66239   0.00000   0.00000   0.00000   0.00000  -6.66239
    Y9        3.66374  -0.00000   0.00000   0.00000   0.00000   3.66374
    Z9       -0.50184   0.00000   0.00000   0.00000   0.00000  -0.50184
   X10       -9.29369  -0.00000   0.00000   0.00000   0.00000  -9.29369
   Y10        4.85134   0.00000   0.00000   0.00000   0.00000   4.85135
   Z10       -2.02459  -0.00000   0.00000   0.00000   0.00000  -2.02459
   X11        0.23415  -0.00000   0.00000   0.00000   0.00000   0.23415
   Y11       -0.14620   0.00000   0.00000  -0.00000  -0.00000  -0.14620
   Z11       -0.08413   0.00000   0.00000   0.00000   0.00000  -0.08413
   X12       -0.30312  -0.00000   0.00000  -0.00000  -0.00000  -0.30312
   Y12       -3.84722  -0.00000   0.00000  -0.00000  -0.00000  -3.84722
   Z12       -1.28668   0.00000   0.00000   0.00000   0.00000  -1.28668
   X13       -1.67726   0.00000   0.00000  -0.00001  -0.00001  -1.67726
   Y13       -5.77783   0.00000   0.00000   0.00000   0.00000  -5.77783
   Z13       -0.25578  -0.00000   0.00000  -0.00000  -0.00000  -0.25579
   X14       -2.93203  -0.00000   0.00000  -0.00001  -0.00001  -2.93204
   Y14       -5.66207  -0.00000   0.00000   0.00000   0.00000  -5.66206
   Z14        2.71801   0.00000   0.00000  -0.00000  -0.00000   2.71800
   X15       -3.01424   0.00000   0.00000   0.00000   0.00000  -3.01424
   Y15        1.77591  -0.00000   0.00000  -0.00000  -0.00000   1.77591
   Z15        0.31353  -0.00000   0.00000  -0.00000  -0.00000   0.31353
   X16       -4.69147  -0.00000   0.00000  -0.00000  -0.00000  -4.69147
   Y16        2.36169   0.00000   0.00000   0.00000   0.00000   2.36170
   Z16       -1.56263  -0.00000   0.00000  -0.00000  -0.00000  -1.56263
   X17       -4.19676   0.00000   0.00000   0.00000   0.00000  -4.19676
   Y17        1.47065   0.00000   0.00000   0.00000   0.00000   1.47066
   Z17       -4.66455   0.00000   0.00000   0.00000   0.00000  -4.66455
   X18        2.76656  -0.00000   0.00000  -0.00000  -0.00000   2.76656
   Y18        1.61345  -0.00000   0.00000  -0.00000  -0.00000   1.61345
   Z18       -2.40528   0.00000   0.00000   0.00000   0.00000  -2.40528
   X19        5.15875   0.00000   0.00000   0.00000   0.00000   5.15876
   Y19        1.00399   0.00000   0.00000   0.00000   0.00000   1.00400
   Z19       -3.15893  -0.00000   0.00000   0.00000   0.00000  -3.15893
   X20        6.54345   0.00000   0.00000   0.00000   0.00000   6.54345
   Y20       -1.85992  -0.00000   0.00000   0.00000   0.00000  -1.85992
   Z20       -2.44668   0.00000   0.00000   0.00001   0.00001  -2.44667
   X21        0.32579  -0.00000   0.00000   0.00000   0.00000   0.32580
   Y21       -4.63415  -0.00000   0.00000  -0.00000  -0.00000  -4.63415
   Z21       -3.60193   0.00000   0.00000   0.00000   0.00000  -3.60193
   X22        1.42624   0.00000   0.00000   0.00001   0.00001   1.42625
   Y22       -3.49768   0.00000   0.00000  -0.00000  -0.00000  -3.49768
   Z22       -4.89223  -0.00000   0.00000   0.00000   0.00000  -4.89223
   X23       -4.10804   0.00000   0.00000   0.00000   0.00000  -4.10804
   Y23        2.77167  -0.00000   0.00000  -0.00000  -0.00000   2.77167
   Z23        2.41379   0.00000   0.00000   0.00000   0.00000   2.41379
   X24       -3.24554   0.00000   0.00000  -0.00000  -0.00000  -3.24554
   Y24        2.61088   0.00000   0.00000  -0.00000  -0.00000   2.61088
   Z24        4.26077   0.00000   0.00000   0.00000   0.00000   4.26078
   X25        2.43459   0.00000   0.00000  -0.00000  -0.00000   2.43459
   Y25        3.98242   0.00000   0.00000  -0.00000  -0.00000   3.98242
   Z25       -3.31979  -0.00000   0.00000  -0.00000  -0.00000  -3.31979
   X26        0.67991  -0.00000   0.00000  -0.00000  -0.00000   0.67991
   Y26        4.99658  -0.00000   0.00000  -0.00000  -0.00000   4.99657
   Z26       -3.04887   0.00000   0.00000  -0.00000  -0.00000  -3.04888
   X27        4.43707  -0.00000   0.00000  -0.00000  -0.00000   4.43707
   Y27        0.83058   0.00000   0.00000   0.00000   0.00000   0.83059
   Z27        3.98109   0.00000   0.00000  -0.00000  -0.00000   3.98109
   X28        2.21348   0.00000   0.00000  -0.00000  -0.00000   2.21348
   Y28        2.03289  -0.00000   0.00000  -0.00000  -0.00000   2.03289
   Z28        5.02593  -0.00000   0.00000   0.00000   0.00000   5.02593
   X29        1.90466   0.00000   0.00000   0.00000   0.00000   1.90467
   Y29       -0.21562   0.00000   0.00000  -0.00000  -0.00000  -0.21563
   Z29        3.43719   0.00000   0.00000   0.00000   0.00000   3.43719
   X30        6.14275  -0.00000   0.00000   0.00000   0.00000   6.14276
   Y30       -0.79711  -0.00000   0.00000   0.00001   0.00001  -0.79710
   Z30        5.53135   0.00000   0.00000  -0.00001  -0.00001   5.53134
   X31        1.52705   0.00000   0.00000  -0.00001  -0.00001   1.52704
   Y31        3.78046   0.00000   0.00000  -0.00000  -0.00000   3.78045
   Z31        4.20599   0.00000   0.00000   0.00001   0.00001   4.20600
   X32        1.71827   0.00000   0.00000  -0.00000  -0.00000   1.71827
   Y32        1.70344   0.00000   0.00000  -0.00001  -0.00001   1.70343
   Z32        6.98872  -0.00000   0.00000   0.00000   0.00000   6.98872
   X33        7.05653   0.00000   0.00000   0.00001   0.00001   7.05654
   Y33       -2.23858  -0.00000   0.00000   0.00001   0.00001  -2.23857
   Z33        4.36846  -0.00000   0.00000  -0.00001  -0.00001   4.36845
   X34        5.09763   0.00000   0.00000   0.00001   0.00001   5.09764
   Y34       -1.71844   0.00000   0.00000  -0.00000  -0.00000  -1.71844
   Z34        7.05442  -0.00000   0.00000  -0.00001  -0.00001   7.05441
   X35        7.58301   0.00000   0.00000   0.00000   0.00000   7.58301
   Y35        0.43846   0.00000   0.00000   0.00001   0.00001   0.43846
   Z35        6.34752   0.00000   0.00000  -0.00000  -0.00000   6.34751
   X36        5.27492   0.00000   0.00000  -0.00000  -0.00000   5.27491
   Y36        1.73407  -0.00000   0.00000   0.00001   0.00001   1.73408
   Z36        2.34204  -0.00000   0.00000   0.00000   0.00000   2.34204
   X37        7.66373   0.00000   0.00000  -0.00002  -0.00002   7.66372
   Y37       10.52167  -0.00000   0.00000   0.00001   0.00001  10.52168
   Z37       -0.32231  -0.00000   0.00000  -0.00000  -0.00000  -0.32231
   X38        7.87299  -0.00000   0.00000  -0.00002  -0.00002   7.87297
   Y38       11.91718   0.00000   0.00000   0.00001   0.00001  11.91719
   Z38        2.19179  -0.00000   0.00000  -0.00000  -0.00000   2.19179
   X39       10.38681  -0.00000   0.00000  -0.00002  -0.00002  10.38679
   Y39       13.17346   0.00000   0.00000   0.00001   0.00001  13.17347
   Z39        2.79578   0.00000   0.00000   0.00000   0.00000   2.79578
   X40        7.39389  -0.00000   0.00000  -0.00002  -0.00002   7.39387
   Y40       10.52373  -0.00000   0.00000   0.00001   0.00001  10.52374
   Z40        3.64872   0.00000   0.00000   0.00000   0.00000   3.64872
   X41        6.40280   0.00000   0.00000  -0.00002  -0.00002   6.40277
   Y41       13.36420  -0.00000   0.00000   0.00001   0.00001  13.36420
   Z41        2.13812   0.00000   0.00000  -0.00000  -0.00000   2.13812
   X42       10.22100   0.00000   0.00000  -0.00003  -0.00003  10.22097
   Y42       13.91307  -0.00000   0.00000   0.00001   0.00001  13.91309
   Z42        4.71669  -0.00000   0.00000  -0.00000  -0.00000   4.71669
   X43       11.97492   0.00000   0.00000  -0.00002  -0.00002  11.97490
   Y43       11.86621  -0.00000   0.00000   0.00002   0.00002  11.86623
   Z43        2.79070   0.00000   0.00000   0.00000   0.00000   2.79070
   X44       10.82256   0.00000   0.00000  -0.00003  -0.00003  10.82253
   Y44       14.76688   0.00000   0.00000   0.00001   0.00001  14.76689
   Z44        1.55842  -0.00000   0.00000  -0.00000  -0.00000   1.55841
   X45        9.01949  -0.00000   0.00000  -0.00002  -0.00002   9.01947
   Y45       11.97680  -0.00000   0.00000   0.00001   0.00001  11.97681
   Z45       -2.36313   0.00000   0.00000   0.00000   0.00000  -2.36313
   X46        8.81291   0.00000   0.00000  -0.00002  -0.00002   8.81289
   Y46       10.89837  -0.00000   0.00000   0.00001   0.00001  10.89837
   Z46       -5.01845   0.00000   0.00000   0.00000   0.00000  -5.01845
   X47       10.99579   0.00000   0.00000  -0.00002  -0.00002  10.99577
   Y47       12.08453   0.00000   0.00000   0.00001   0.00001  12.08454
   Z47       -1.80495  -0.00000   0.00000   0.00000   0.00000  -1.80495
   X48        8.24918   0.00000   0.00000  -0.00002  -0.00002   8.24915
   Y48       13.89250   0.00000   0.00000   0.00001   0.00001  13.89251
   Z48       -2.29287  -0.00000   0.00000  -0.00000  -0.00000  -2.29288
   X49        9.83649   0.00000   0.00000  -0.00002  -0.00002   9.83647
   Y49       12.16832   0.00000   0.00000   0.00001   0.00001  12.16833
   Z49       -6.28565  -0.00000   0.00000  -0.00000  -0.00000  -6.28565
   X50        9.66801  -0.00000   0.00000  -0.00001  -0.00001   9.66799
   Y50        9.03030   0.00000   0.00000   0.00001   0.00001   9.03031
   Z50       -5.18415  -0.00000   0.00000   0.00000   0.00000  -5.18415
   X51        6.87056  -0.00000   0.00000  -0.00002  -0.00002   6.87055
   Y51       10.76958  -0.00000   0.00000   0.00000   0.00000  10.76958
   Z51       -5.69326  -0.00000   0.00000  -0.00000  -0.00000  -5.69326
   X52        4.87256  -0.00000   0.00000  -0.00002  -0.00002   4.87254
   Y52       10.36129  -0.00000   0.00000   0.00000   0.00000  10.36129
   Z52       -1.03514  -0.00000   0.00000  -0.00000  -0.00000  -1.03514
   X53        3.08641  -0.00000   0.00000  -0.00002  -0.00002   3.08640
   Y53        9.64306   0.00000   0.00000   0.00000   0.00000   9.64306
   Z53        1.10112  -0.00000   0.00000  -0.00000  -0.00000   1.10112
   X54        4.75394   0.00000   0.00000  -0.00001  -0.00001   4.75393
   Y54        8.97522   0.00000   0.00000   0.00000   0.00000   8.97522
   Z54       -2.55595   0.00000   0.00000  -0.00000  -0.00000  -2.55595
   X55        4.38060  -0.00000   0.00000  -0.00002  -0.00002   4.38058
   Y55       12.21980   0.00000   0.00000   0.00000   0.00000  12.21980
   Z55       -1.79267   0.00000   0.00000  -0.00000  -0.00000  -1.79267
   X56        1.28983   0.00000   0.00000  -0.00001  -0.00001   1.28981
   Y56        9.09035   0.00000   0.00000  -0.00000  -0.00000   9.09035
   Z56        0.24539   0.00000   0.00000  -0.00000  -0.00000   0.24539
   X57        3.78043   0.00000   0.00000  -0.00001  -0.00001   3.78041
   Y57        8.07823  -0.00000   0.00000   0.00000   0.00000   8.07823
   Z57        2.25786   0.00000   0.00000  -0.00000  -0.00000   2.25786
   X58        2.70718  -0.00000   0.00000  -0.00002  -0.00002   2.70716
   Y58       11.21805   0.00000   0.00000  -0.00000  -0.00000  11.21805
   Z58        2.37675   0.00000   0.00000  -0.00000  -0.00000   2.37674
   X59        8.63454   0.00000   0.00000  -0.00001  -0.00001   8.63453
   Y59        7.81830   0.00000   0.00000   0.00001   0.00001   7.81831
   Z59       -0.13577  -0.00000   0.00000   0.00000   0.00000  -0.13577
   X60       11.37828   0.00000   0.00000  -0.00001  -0.00001  11.37827
   Y60        7.47685   0.00000   0.00000   0.00002   0.00002   7.47687
   Z60        0.61556  -0.00000   0.00000   0.00000   0.00000   0.61556
   X61        8.24265  -0.00000   0.00000  -0.00001  -0.00001   8.24263
   Y61        6.97111   0.00000   0.00000   0.00001   0.00001   6.97112
   Z61       -1.96572   0.00000   0.00000   0.00000   0.00000  -1.96572
   X62        7.48446  -0.00000   0.00000  -0.00001  -0.00001   7.48445
   Y62        6.90379  -0.00000   0.00000   0.00001   0.00001   6.90380
   Z62        1.31417   0.00000   0.00000   0.00000   0.00000   1.31417
   X63       11.82778   0.00000   0.00000  -0.00001  -0.00001  11.82777
   Y63        5.48642  -0.00000   0.00000   0.00002   0.00002   5.48643
   Z63        0.29939  -0.00000   0.00000   0.00000   0.00000   0.29940
   X64       12.71542  -0.00000   0.00000  -0.00001  -0.00001  12.71541
   Y64        8.58732  -0.00000   0.00000   0.00002   0.00002   8.58733
   Z64       -0.50131   0.00000   0.00000   0.00000   0.00000  -0.50131
   X65       11.64078   0.00000   0.00000  -0.00001  -0.00001  11.64077
   Y65        7.82826   0.00000   0.00000   0.00002   0.00002   7.82828
   Z65        2.62933   0.00000   0.00000   0.00000   0.00000   2.62933
   X66        6.94450   0.00000   0.00000  -0.00001  -0.00001   6.94448
   Y66        6.29628   0.00000   0.00000   0.00001   0.00001   6.29629
   Z66        6.06886   0.00000   0.00000   0.00000   0.00000   6.06886
         Item               Value     Threshold  Converged?
 Maximum Force            0.000001     0.000015     YES
 RMS     Force            0.000000     0.000010     YES
 Maximum Displacement     0.000027     0.000060     YES
 RMS     Displacement     0.000009     0.000040     YES
 Predicted change in Energy=-8.339183D-12
 Optimization completed.
    -- Stationary point found.
 GradGradGradGradGradGradGradGradGradGradGradGradGradGradGradGradGradGrad

 Symmetry turned off by external request.
 Stoichiometry    C20H29BrCl6LiN7OZn
 Framework group  C1[X(C20H29BrCl6LiN7OZn)]
 Deg. of freedom   192
 Full point group                 C1      NOp   1
                          Input orientation:                          
 ---------------------------------------------------------------------
 Center     Atomic      Atomic             Coordinates (Angstroms)
 Number     Number       Type             X           Y           Z
 ---------------------------------------------------------------------
      1          3           0       -0.656174   -5.038394   -3.457440
      2          7           0       -0.282792   -3.675582   -2.194684
      3          6           0       -0.953637   -4.051282   -1.067111
      4         17           0       -1.731583   -5.602165   -1.053326
      5          7           0        2.328228    2.599049   -2.419433
      6          6           0        3.238778    1.595748   -2.369454
      7         17           0        4.801357    1.721254   -3.101622
      8          7           0       -3.327483    2.075083    1.065729
      9          6           0       -3.525583    1.938769   -0.265560
     10         17           0       -4.918008    2.567220   -1.071365
     11         30           0        0.123905   -0.077366   -0.044522
     12          7           0       -0.160404   -2.035861   -0.680881
     13          6           0       -0.887566   -3.057498   -0.135355
     14         17           0       -1.551563   -2.996238    1.438308
     15          7           0       -1.595069    0.939769    0.165911
     16          6           0       -2.482620    1.249755   -0.826907
     17         17           0       -2.220829    0.778237   -2.468373
     18          7           0        1.464001    0.853801   -1.272818
     19          6           0        2.729895    0.531291   -1.671634
     20         17           0        3.462644   -0.984226   -1.294727
     21          6           0        0.172403   -2.452286   -1.906060
     22          1           0        0.754734   -1.850892   -2.588858
     23          6           0       -2.173883    1.466703    1.277324
     24          1           0       -1.717466    1.381619    2.254705
     25          6           0        1.288331    2.107408   -1.756755
     26          1           0        0.359794    2.644074   -1.613394
     27          6           0        2.347996    0.439525    2.106702
     28          6           0        1.171323    1.075761    2.659605
     29          8           0        1.007905   -0.114103    1.818881
     30          6           0        3.250604   -0.421812    2.927064
     31          1           0        0.808081    2.000532    2.225716
     32          1           0        0.909270    0.901422    3.698272
     33          1           0        3.734157   -1.184608    2.311692
     34          1           0        2.697552   -0.909359    3.733037
     35          1           0        4.012754    0.232021    3.358961
     36          1           0        2.791366    0.917628    1.239353
     37          7           0        4.055473    5.567828   -0.170558
     38          6           0        4.166208    6.306301    1.159844
     39          6           0        5.496464    6.971094    1.479462
     40          1           0        3.912676    5.568916    1.930819
     41          1           0        3.388215    7.072028    1.131447
     42          1           0        5.408721    7.362480    2.495964
     43          1           0        6.336853    6.279329    1.476776
     44          1           0        5.727053    7.814294    0.824678
     45          6           0        4.772907    6.337851   -1.250515
     46          6           0        4.663590    5.767167   -2.655652
     47          1           0        5.818721    6.394858   -0.955141
     48          1           0        4.365276    7.351593   -1.213337
     49          1           0        5.205245    6.439196   -3.326225
     50          1           0        5.116088    4.778630   -2.743333
     51          1           0        3.635746    5.699015   -3.012741
     52          6           0        2.578449    5.482956   -0.547772
     53          6           0        1.633259    5.102886    0.582687
     54          1           0        2.515677    4.749482   -1.352550
     55          1           0        2.318114    6.466438   -0.948639
     56          1           0        0.682548    4.810407    0.129856
     57          1           0        2.000517    4.274815    1.194810
     58          1           0        1.432580    5.936334    1.257720
     59          6           0        4.569201    4.137264   -0.071846
     60          6           0        6.021128    3.956578    0.325742
     61          1           0        4.361820    3.688952   -1.040212
     62          1           0        3.960605    3.653328    0.695429
     63          1           0        6.258993    2.903286    0.158433
     64          1           0        6.728711    4.544212   -0.265284
     65          1           0        6.160037    4.142538    1.391379
     66         35           0        3.674869    3.331848    3.211501
 ---------------------------------------------------------------------
 Rotational constants (GHZ):           0.0872022           0.0398946           0.0373906
    4 atoms frozen in the vibrational analysis.
 Diagonal vibrational polarizability:
      751.4498915     324.0738416     269.5010908
 Harmonic frequencies (cm**-1), IR intensities (KM/Mole), Raman scattering
 activities (A**4/AMU), depolarization ratios for plane and unpolarized
 incident light, reduced masses (AMU), force constants (mDyne/A),
 and normal coordinates:
                      1                      2                      3
                      A                      A                      A
 Frequencies --      7.5505                 8.3036                10.4319
 Red. masses --      6.9734                12.6456                 8.4514
 Frc consts  --      0.0002                 0.0005                 0.0005
 IR Inten    --      0.1060                 0.1772                 0.2526
  Atom  AN      X      Y      Z        X      Y      Z        X      Y      Z
     3   6     0.04  -0.02   0.02     0.13  -0.06   0.06     0.07  -0.03   0.03
     4  17     0.07  -0.03   0.03     0.23  -0.11   0.11     0.13  -0.06   0.06
     6   6    -0.01  -0.01  -0.02    -0.01  -0.01  -0.02     0.00   0.00   0.02
     7  17    -0.02  -0.03  -0.05    -0.01  -0.02  -0.02     0.01   0.01   0.04
     9   6    -0.00  -0.00   0.00    -0.00  -0.00   0.00     0.00   0.00  -0.00
    10  17    -0.00  -0.01   0.00     0.00   0.00  -0.00     0.00   0.00  -0.00
    11  30    -0.00  -0.00   0.00     0.00  -0.00   0.00    -0.00  -0.00   0.00
    12   7     0.01  -0.00   0.00     0.03  -0.01   0.01     0.02  -0.01   0.01
    13   6     0.04  -0.02   0.02     0.15  -0.07   0.06     0.08  -0.04   0.04
    14  17     0.08  -0.04   0.03     0.29  -0.13   0.13     0.16  -0.07   0.07
    15   7     0.00   0.00   0.00    -0.00  -0.01   0.00    -0.00  -0.00   0.00
    16   6     0.00  -0.00   0.00    -0.00  -0.01   0.00    -0.00  -0.00   0.00
    17  17     0.00  -0.00   0.00    -0.00  -0.01   0.00    -0.00  -0.00  -0.00
    18   7     0.00   0.00   0.00    -0.01  -0.01  -0.02    -0.01  -0.00  -0.01
    19   6    -0.01  -0.01  -0.02    -0.02  -0.01  -0.03     0.00   0.00   0.01
    20  17    -0.02  -0.02  -0.04    -0.03  -0.02  -0.05     0.00   0.01   0.02
    21   6    -0.02   0.01  -0.01    -0.05   0.03  -0.02    -0.03   0.01  -0.01
    22   1    -0.05   0.02  -0.02    -0.15   0.07  -0.07    -0.09   0.04  -0.04
    23   6     0.00   0.00   0.00    -0.00  -0.01   0.00    -0.00  -0.00   0.00
    24   1     0.00   0.01   0.00    -0.00  -0.00   0.00    -0.00  -0.00   0.00
    25   6     0.01   0.01   0.02    -0.00   0.00  -0.00    -0.01  -0.00  -0.01
    26   1     0.01   0.02   0.04     0.00   0.01   0.01    -0.01  -0.01  -0.03
    27   6     0.01  -0.05   0.00     0.01   0.07  -0.03    -0.01  -0.02   0.01
    28   6     0.03  -0.02  -0.00     0.01   0.07  -0.04    -0.01  -0.02   0.01
    29   8    -0.00  -0.01   0.00     0.02   0.04  -0.01    -0.01  -0.01   0.00
    30   6    -0.01  -0.07   0.01     0.03   0.10  -0.02    -0.01  -0.03   0.01
    31   1     0.05  -0.01  -0.01     0.00   0.05  -0.06    -0.00  -0.02   0.02
    32   1     0.02  -0.01  -0.00     0.03   0.10  -0.03    -0.01  -0.03   0.01
    33   1    -0.04  -0.09   0.01     0.04   0.09  -0.00    -0.01  -0.02   0.00
    34   1    -0.03  -0.05   0.01     0.04   0.11  -0.00    -0.02  -0.04  -0.00
    35   1     0.00  -0.09   0.00     0.03   0.12  -0.04    -0.02  -0.04   0.02
    36   1     0.02  -0.06   0.00     0.00   0.05  -0.05    -0.00  -0.02   0.01
    37   7     0.14  -0.08   0.02     0.00   0.06  -0.12    -0.09  -0.04   0.14
    38   6     0.18  -0.10   0.02     0.00   0.08  -0.14    -0.10  -0.04   0.14
    39   6     0.20  -0.13   0.02     0.01   0.08  -0.14    -0.10  -0.03   0.15
    40   1     0.17  -0.10   0.02    -0.01   0.10  -0.13    -0.09  -0.05   0.14
    41   1     0.20  -0.08   0.04     0.01   0.09  -0.15    -0.10  -0.05   0.15
    42   1     0.22  -0.14   0.02     0.00   0.10  -0.15    -0.11  -0.03   0.15
    43   1     0.18  -0.16  -0.00     0.00   0.08  -0.12    -0.10  -0.02   0.15
    44   1     0.21  -0.13   0.02     0.02   0.07  -0.16    -0.11  -0.02   0.15
    45   6     0.15  -0.08   0.02     0.02   0.04  -0.13    -0.09  -0.03   0.14
    46   6     0.12  -0.06   0.01     0.01   0.02  -0.13    -0.07  -0.04   0.15
    47   1     0.15  -0.12   0.00     0.02   0.03  -0.13    -0.10  -0.01   0.15
    48   1     0.18  -0.07   0.04     0.03   0.04  -0.15    -0.12  -0.04   0.14
    49   1     0.13  -0.07   0.01     0.03   0.00  -0.13    -0.10  -0.03   0.14
    50   1     0.09  -0.07  -0.01    -0.01   0.01  -0.11    -0.03  -0.03   0.15
    51   1     0.11  -0.03   0.02     0.01   0.04  -0.13    -0.07  -0.09   0.15
    52   6     0.14  -0.04   0.03     0.01   0.06  -0.13    -0.08  -0.06   0.14
    53   6     0.14  -0.02   0.04    -0.00   0.09  -0.13    -0.08  -0.08   0.14
    54   1     0.11  -0.02   0.03     0.01   0.05  -0.11    -0.07  -0.05   0.14
    55   1     0.16  -0.02   0.05     0.02   0.06  -0.15    -0.10  -0.06   0.15
    56   1     0.13   0.00   0.05    -0.00   0.10  -0.13    -0.07  -0.10   0.14
    57   1     0.13  -0.04   0.03    -0.02   0.10  -0.11    -0.06  -0.07   0.14
    58   1     0.17  -0.03   0.05     0.00   0.11  -0.14    -0.10  -0.08   0.14
    59   6     0.11  -0.09  -0.01    -0.00   0.06  -0.10    -0.07  -0.04   0.14
    60   6     0.11  -0.13  -0.02    -0.01   0.06  -0.08    -0.06  -0.02   0.13
    61   1     0.09  -0.07  -0.01     0.00   0.05  -0.09    -0.07  -0.04   0.14
    62   1     0.10  -0.09  -0.01    -0.01   0.08  -0.09    -0.06  -0.04   0.15
    63   1     0.08  -0.14  -0.04    -0.01   0.05  -0.06    -0.05  -0.02   0.13
    64   1     0.12  -0.15  -0.02    -0.00   0.04  -0.09    -0.08  -0.01   0.13
    65   1     0.12  -0.15  -0.02    -0.02   0.08  -0.08    -0.06  -0.02   0.13
[...]
 0.00001475,-0.00008488,0.,0.,0.,0.00001126,-0.00000366,0.00000660,-0.0
 0000985,0.00000381,-0.00000558,0.00005315,0.00002580,0.00007363,-0.000
 00906,-0.00002007,-0.00001841,0.00000386,0.00000846,0.00000179,0.00000
 024,-0.00000196,-0.00000399,-0.00002129,-0.00000011,-0.00001106,-0.000
 00009,0.00000376,0.00001790,-0.00000024,-0.00000309,-0.00000939,0.0000
 5951,-0.00001219,-0.00005258,0.00003406,-0.00003616,-0.00000154,-0.000
 01501,0.00001748,-0.00001305,-0.00000281,0.00001112,0.00001673,0.00000
 071,0.00000106,0.00000335,0.00000996,-0.00000827,-0.00000125,0.0000033
 1,0.00000206,-0.00000444,0.00002669,0.00001934,-0.00002012,0.00000863,
 0.00000539,0.00000055,0.00008793,0.00006031,-0.00001230,0.00002266,0.0
 0000946,0.00000328,-0.00010539,-0.00006128,-0.00004515,-0.00000916,0.0
 0000153,0.00001698,0.00000719,0.00000279,0.00000220,-0.00000257,-0.000
 00246,0.00000007,0.00000613,0.00001284,-0.00000308,-0.00001489,-0.0000
 0777,0.00000569,0.00000327,0.00001175,-0.00003202,0.00004037,0.0000070
 3,0.00002175,-0.00081368,0.00094424,-0.00060718,0.00017435,-0.00012616
 ,-0.00026619,-0.00006658,0.00005544,-0.00019948,0.00000686,0.00001863,
 0.00000074,-0.00001878,0.00002685,0.00002795,0.00001376,0.00001653,0.0
 0004728,0.00016003,-0.00035734,-0.00046869,-0.00000572,0.00000033,0.00
 000550,0.00055547,-0.00103943,0.00074928,-0.00006930,0.00015332,-0.000
 10198,0.00122617,-0.00148410,0.00097931,0.00006738,0.00013043,-0.00018
 943,0.00000681,-0.00001637,-0.00003148,-0.00015386,-0.00002107,-0.0001
 2513,0.00002760,-0.00003818,-0.00004198,0.00021350,0.00024008,0.000116
 57,-0.00004002,-0.00001161,-0.00008820,-0.00003017,0.00000862,0.000013
 06,-0.00011178,0.00000829,-0.00001593,-0.00002652,-0.00000135,0.000020
 97,0.00002226,-0.00000324,0.00002064,0.00001175,-0.00000653,0.00001071
 ,0.00525405,0.00224691,-0.00417591,-0.09475555,-0.12646149,0.07966270,
 -0.00052506,-0.00018619,0.00008376,0.00148690,0.00082378,-0.00005137,-
 0.02098161,-0.01529983,0.01806009,0.10234744,0.13707478,0.,0.,0.,0.,0.
 ,0.,-0.00000434,-0.00000906,-0.00000162,0.00000352,0.00000869,0.000002
 36,0.,0.,0.,-0.00007357,0.00000604,0.00002860,0.00004703,0.00002085,0.
 00000907,0.,0.,0.,-0.00001291,0.00000526,-0.00000738,0.00001192,-0.000
 00584,0.00000663,-0.00006387,-0.00001375,-0.00007452,0.00001153,0.0000
 1683,0.00001588,-0.00000433,-0.00000708,-0.00000019,0.00000053,0.00000
 159,0.00000216,0.00002888,-0.00000815,0.00001094,-0.00000303,-0.000000
 96,-0.00001404,0.00000157,0.00000122,0.00000680,0.00002348,-0.00000594
 ,0.00001105,0.00000938,-0.00000289,0.00000209,0.00000675,-0.00000479,0
 .00000686,0.00000156,-0.00000965,-0.00001291,-0.00000163,-0.00000093,-
 0.00000204,-0.00001506,0.00001101,0.00000010,-0.00000378,-0.00000115,0
 .00000446,0.00001116,0.00002068,-0.00001649,0.00000387,0.00000197,-0.0
 0000093,-0.00003709,-0.00007013,-0.00004198,-0.00007414,-0.00005043,-0
 .00001275,0.00011626,0.00010846,0.00008935,-0.00000660,-0.00000401,-0.
 00000792,-0.00002035,0.00000322,-0.00001218,-0.00000835,-0.00000442,0.
 00000301,-0.00000072,0.00000438,0.00000469,0.00001060,0.00000482,-0.00
 000064,0.00000607,-0.00003165,0.00001980,-0.00000825,-0.00000746,-0.00
 002716,0.00089204,0.00074586,0.00008452,0.00019181,0.00027001,0.000003
 69,0.00040207,-0.00008039,0.00041401,-0.00010762,0.00015963,-0.0001205
 6,-0.00009201,-0.00009794,0.00002985,-0.00021693,0.00021889,0.00002044
 ,-0.00006179,0.00001960,-0.00066316,-0.00006052,-0.00000687,-0.0000013
 7,-0.00010428,0.00099449,0.00001197,-0.00007040,0.00013941,0.00011297,
 -0.00066499,0.00060726,0.00001806,-0.00005368,-0.00010372,0.00001712,-
 0.00000953,0.00000778,-0.00000500,-0.00006055,-0.00012476,-0.00014857,
 0.00004099,-0.00013229,-0.00003504,0.00017704,-0.00029429,0.00000918,-
 0.00000990,-0.00002611,0.00006993,-0.00003143,-0.00000408,0.00000426,0
 .00006278,-0.00001397,0.00001487,-0.00000357,-0.00000822,0.00000554,-0
 .00003536,0.00003709,-0.00009288,-0.00000042,0.00001107,-0.00002101,-0
 .00542431,-0.00827777,0.00654720,0.09180949,0.07983044,-0.13246047,0.0
 0044891,-0.00028093,0.00030859,-0.00176609,0.00072276,-0.00032874,-0.0
 0457208,-0.00298231,0.00251097,-0.10142332,-0.08995991,0.13592156,0.,0
 .,0.,0.,0.,0.,-0.00000412,-0.00000485,0.00000446,-0.00000055,0.0000012
 9,0.00000281,0.,0.,0.,-0.00013458,0.00017318,-0.00001435,-0.00000520,-
 0.00003963,0.00000442,0.,0.,0.,-0.00000859,0.00000381,-0.00000031,0.00
 000914,-0.00000400,0.00000755,0.00001225,0.00003976,-0.00027462,-0.000
 00597,0.00000162,0.00003936,0.00000452,-0.00001430,-0.00002784,-0.0000
 0448,0.00000218,0.00001516,-0.00000181,-0.00000195,0.00004331,0.000020
 85,-0.00001888,-0.00002737,-0.00000898,0.00000634,0.00002500,-0.000112
 44,-0.00016362,0.00021268,0.00005424,0.00009839,-0.00006340,0.00002171
 ,-0.00006778,0.00003231,0.00001301,0.00000750,-0.00001895,0.00000327,0
 .00000587,0.00000438,-0.00001689,0.00000761,-0.00003132,-0.00000695,-0
 .00000557,0.00000994,0.00016329,0.00012135,-0.00014938,-0.00001102,-0.
 00000398,-0.00000993,-0.00001159,-0.00018905,-0.00013943,-0.00018446,-
 0.00014573,-0.00005445,0.00024129,0.00030589,0.00028526,-0.00002951,0.
 00000673,0.00000048,-0.00005782,0.00000464,-0.00003561,-0.00003262,-0.
 00001697,0.00001518,0.00000550,0.00003675,0.00001362,0.00000778,0.0000
 0242,0.00000259,0.00005643,-0.00008830,0.00001708,-0.00000849,-0.00002
 445,-0.00006805,0.00073327,-0.00013006,0.00003809,-0.00005774,0.000595
 44,-0.00058301,0.00013241,0.00016160,0.00028360,-0.00051086,0.00043774
 ,-0.00003430,-0.00002684,-0.00010364,0.00021448,0.00001698,0.00010432,
 0.00000478,0.00042883,-0.00022470,0.00001032,-0.00004166,-0.00006323,0
 .00000135,-0.00027116,-0.00025506,0.00013569,0.00011994,0.00000925,-0.
 00007061,0.00005662,0.00009963,0.00006751,0.00009501,0.00006289,-0.000
 02572,-0.00001398,0.00008268,-0.00000853,-0.00016130,-0.00001774,0.000
 05192,0.00003231,-0.00006200,0.00004021,-0.00006481,-0.00001411,-0.000
 10598,0.00002951,0.00003257,0.00007252,0.00013415,0.00005049,0.0001657
 9,-0.00007999,0.00011853,0.00012230,0.00000750,-0.00001293,0.00003561,
 -0.00012727,0.00002242,-0.00019385,-0.00004868,0.00002179,0.00002488,-
 0.00537576,-0.00952908,-0.03425351,-0.05366669,-0.00558548,-0.02975916
 ,-0.00611698,0.00156875,-0.00089349,0.00135638,0.00018372,-0.00069258,
 0.00047200,0.00058802,0.00736158,0.00307089,0.00597031,0.01975392,0.05
 900284,0.,0.,0.,0.,0.,0.,-0.00000180,-0.00000159,0.00000298,-0.0000009
 3,-0.00000069,0.00000193,0.,0.,0.,0.00016945,0.00001481,-0.00004956,-0
 .00012506,-0.00001727,-0.00001613,0.,0.,0.,-0.00000514,0.00000304,-0.0
 0000072,0.00000672,-0.00000398,0.00000510,-0.00000904,0.00003142,-0.00
 016488,-0.00000204,-0.00000242,0.00002370,0.00000320,-0.00000784,-0.00
 001881,-0.00000315,0.00000104,0.00001049,0.00000657,-0.00000832,0.0000
 2552,0.00000844,-0.00000878,-0.00001636,-0.00000410,0.00000240,0.00001
 312,-0.00009434,-0.00004772,0.00009605,0.00003714,0.00006061,-0.000038
 17,0.00000086,-0.00003274,0.00001777,0.00000807,0.00000609,-0.00001137
 ,0.00000243,0.00000333,0.00000249,-0.00001474,0.00000693,-0.00001555,-
 0.00000391,-0.00000098,0.00000576,-0.00000595,0.00003905,-0.00001225,-
 0.00000234,0.00000163,0.00000041,-0.00008245,-0.00006792,-0.00007065,-
 0.00006772,-0.00006949,-0.00001950,0.00015680,0.00013148,0.00014575,-0
 .00000191,-0.00001982,-0.00001355,-0.00002335,0.00000304,-0.00001835,-
 0.00001164,-0.00000564,0.00000595,-0.00000640,0.00000321,0.00000048,0.
 00001647,0.00000701,0.00000342,-0.00001120,-0.00003695,0.00003205,-0.0
 0000877,-0.00001942,-0.00004020,-0.00054559,0.00046059,0.00069359,0.00
 021423,0.00011513,0.00038433,0.00024276,-0.00141984,-0.00013898,0.0003
 4825,0.00025090,-0.00025135,-0.00016116,0.00002970,-0.00014280,-0.0000
 1909,-0.00002927,-0.00002411,-0.00009619,-0.00274174,0.00003935,-0.000
 18673,0.00014624,-0.00003513,-0.00018385,-0.00040281,0.00014274,0.0000
 0548,0.00005703,-0.00012185,0.00005697,0.00015971,0.00021264,0.0001450
 6,0.00001817,0.00003619,-0.00000392,0.00001051,-0.00002244,-0.00008131
 ,-0.00004005,-0.00008747,0.00001511,-0.00002748,-0.00000824,0.00035582
 ,0.00004924,-0.00005588,-0.00000210,0.00002436,0.00001079,-0.00002399,
 -0.00002190,-0.00001947,-0.00005446,-0.00002182,-0.00001748,-0.0000047
 9,-0.00002347,0.00001040,-0.00003968,0.00003375,-0.00009147,0.00002551
 ,-0.00000649,-0.00001243,0.00113214,0.00013191,0.00569595,-0.00689180,
 -0.05712509,-0.04753844,0.00053765,0.00112154,0.00003131,-0.00052910,-
 0.00000907,-0.00067803,-0.00443857,-0.00450867,-0.03140853,0.00385854,
 0.00316523,0.01868887,0.00555984,0.06130194,0.,0.,0.,0.,0.,0.,0.000003
 97,0.00000868,0.00000197,-0.00000383,-0.00000934,-0.00000218,0.,0.,0.,
 0.00000942,0.00001934,-0.00002275,-0.00002777,-0.00001306,-0.00000234,
 0.,0.,0.,0.00001368,-0.00000527,0.00000772,-0.00001190,0.00000567,-0.0
 0000638,0.00006519,0.00003169,0.00004513,-0.00001148,-0.00002097,-0.00
 001261,0.00000522,0.00000664,-0.00000329,-0.00000098,-0.00000170,-0.00
 000055,-0.00003048,0.00000482,-0.00000668,0.00000447,-0.00000040,0.000
 01249,-0.00000252,-0.00000113,-0.00000539,-0.00003726,-0.00002142,0.00
 001184,-0.00000761,0.00004247,-0.00001439,0.00000616,-0.00001823,0.000
 00346,-0.00000029,0.00001167,0.00001268,0.00000130,0.00000249,0.000002
 38,0.00001343,-0.00001109,-0.00000252,0.00000354,0.00000184,-0.0000039
 2,0.00002431,-0.00000788,-0.00000970,-0.00000250,-0.00000240,0.0000019
 0,-0.00000867,0.00007378,0.00003472,0.00006063,0.00004358,0.00000614,-
 0.00007918,-0.00011478,-0.00007520,0.00000815,-0.00000484,0.00000038,0
 .00002836,-0.00000382,0.00001110,0.00001161,0.00000510,-0.00000245,-0.
 00000402,-0.00001517,-0.00000707,0.00000043,-0.00000132,0.00000134,-0.
 00002005,0.00003167,0.00000208,-0.00000790,0.00001155,0.00001452,0.000
 07166,-0.00004515,-0.00005327,-0.00075761,0.00020737,-0.00032858,-0.00
 087105,-0.00097208,-0.00000348,-0.00002970,-0.00017266,0.00026091,0.00
 011242,0.00006373,0.00008135,0.00026919,-0.00035651,-0.00006930,0.0010
 3176,-0.00041020,0.00046590,0.00029254,-0.00040422,-0.00005746,-0.0000
 3580,0.00009457,-0.00004087,0.00007582,-0.00004020,0.00002677,-0.00002
 018,-0.00008319,-0.00017073,-0.00007341,0.00003567,-0.00001742,-0.0000
 0394,0.00002060,0.00000283,0.00001399,0.00001521,0.00009401,-0.0000089
 8,0.00001965,0.00002881,-0.00015204,0.00006128,0.00001238,0.00001077,0
 .00000746,-0.00000940,0.00006816,0.00000391,0.00004771,-0.00001566,0.0
 0003414,0.00001183,0.00000628,0.00000906,-0.00000156,0.00003187,-0.000
 01819,0.00004750,-0.00002791,0.00000962,0.00001544,-0.00283224,-0.0018
 6658,-0.00594747,-0.03361635,-0.04834965,-0.31778852,-0.00070164,0.000
 62100,0.00086215,0.00053709,0.00050403,0.00010410,-0.00007461,-0.00038
 667,-0.00324082,-0.00201348,-0.00354506,-0.01205745,0.03876165,0.05489
 044,0.33808006,0.,0.,0.,0.,0.,0.,0.00004666,0.00008016,-0.00001166,-0.
 00003012,-0.00008501,-0.00002730,0.,0.,0.,-0.00044195,-0.00004880,0.00
 025025,0.00039416,0.00008945,-0.00010723,0.,0.,0.,0.00017738,-0.000060
 00,0.00006248,-0.00014392,0.00005951,-0.00008969,0.00036304,0.00033514
 ,0.00158120,-0.00004061,-0.00024621,-0.00028096,0.00004218,0.00013691,
 0.00005415,0.00000411,-0.00002968,-0.00005471,-0.00021635,-0.00004562,
 -0.00023771,-0.00008753,0.00010490,0.00024675,0.00002405,-0.00005432,-
 0.00018132,0.00035935,0.00018248,-0.00062778,-0.00031020,0.00012051,0.
 00009782,0.00010715,-0.00008341,-0.00001359,-0.00006681,0.00006863,0.0
 0021226,-0.00001689,0.00000550,-0.00000323,0.00015760,-0.00012848,0.00
 013521,0.00007086,0.00008564,-0.00009534,-0.00011719,-0.00034133,0.000
 11626,0.00008275,0.00001214,0.00008736,-0.00341935,0.00071390,0.000270
 24,0.00084750,0.00073006,-0.00063865,-0.00154204,-0.00457126,-0.002391
 35,0.00005795,0.00005489,-0.00039027,0.00080884,-0.00063200,0.00047000
 ,0.00028253,0.00016838,-0.00002064,0.00013826,-0.00018214,0.00007927,0
 .00016774,0.00012655,0.00005081,-0.00031693,-0.00050932,0.00031194,-0.
 00038900,0.00002388,0.00012566,0.00061775,-0.00014253,0.00028818,0.001
 04022,-0.00097969,0.00018129,0.00003301,0.00033943,-0.00018484,-0.0020
 0325,0.00012396,-0.00003010,-0.00003704,-0.00058074,0.00051780,-0.0000
 2552,0.00020914,-0.00002039,0.00032974,0.00020486,-0.00018191,0.000160
 30,-0.00008070,0.00011330,0.00009574,-0.00010245,0.00006456,-0.0000585
 1,0.00005421,-0.00001904,0.00015497,0.00014855,-0.00008828,0.00001367,
 -0.00010009,0.00002815,0.00003408,-0.00001556,0.00001251,-0.00001061,-
 0.00005429,-0.00007858,0.00005521,-0.00002175,0.00008962,-0.00214838,0
 .00013282,-0.00001764,-0.00030105,0.00035595,-0.00206987,0.00013735,0.
 00003165,-0.00004515,0.00053981,0.00019310,-0.00032719,-0.00013202,0.0
 0033990,-0.00044705,-0.00079388,0.00054189,0.00047713,0.00003376,-0.00
 011366,0.00018037,-0.00049974,0.00046445,0.00138028,-0.00077957,-0.000
 88560,0.00018524,-0.00003200,-0.00036819,0.00035376,-0.00178544,-0.000
 13279,0.00013133,0.00015342,-0.00002625,-0.00026772,0.00019480,-0.0000
 6989,0.00100047,0.00111008,0.00087975,-0.00000397,0.00674812,0.,0.,0.,
 0.,0.,0.,0.00007079,0.00012053,-0.00000675,-0.00004012,-0.00011036,-0.
 00004124,0.,0.,0.,-0.00021311,-0.00021028,0.00022112,0.00026386,0.0001
 7095,-0.00009328,0.,0.,0.,0.00011553,-0.00006111,0.00006883,-0.0001799
 7,0.00010167,-0.00010037,0.00122455,-0.00028094,0.00255749,-0.00018170
 ,-0.00020143,-0.00043478,0.00006164,0.00017298,0.00011569,0.00000148,-
 0.00003829,-0.00009610,-0.00053426,0.00028770,-0.00034379,0.00004856,0
 .00003271,0.00031478,-0.00001157,-0.00000457,-0.00012656,0.00038235,0.
 00057128,-0.00102497,-0.00032964,-0.00037125,0.00026104,-0.00013107,0.
 00035323,-0.00022371,-0.00009356,0.00008067,0.00027090,0.00000778,-0.0
 0001584,0.00000875,0.00037558,-0.00022390,0.00000738,0.00008396,-0.000
 04818,-0.00009666,-0.00008297,-0.00064536,0.00038042,-0.00006407,-0.00
 005191,-0.00003259,-0.00032783,0.00104229,0.00109773,0.00235284,-0.001
 63512,-0.00118732,-0.00523878,-0.00434276,-0.00319317,0.00081821,-0.00
 145479,0.00037615,0.00014939,-0.00039764,-0.00011295,0.00029820,0.0000
 9811,-0.00003432,-0.00042282,-0.00061019,-0.00031700,-0.00036509,-0.00
 032025,-0.00006415,-0.00121226,0.00000176,-0.00073140,-0.00047307,-0.0
 0031996,0.00086025,-0.00021971,-0.00014403,0.00039156,-0.00010678,-0.0
 0454841,0.00189713,0.00062472,0.00003553,0.00086098,0.00003088,-0.0005
 5719,-0.00074073,-0.00006088,-0.00054286,0.00077548,0.00017957,0.00037
 319,-0.00005941,-0.00013114,0.00002624,-0.00017811,-0.00056171,-0.0003
 5254,0.00007082,0.00035276,0.00086563,0.00010040,-0.00018997,-0.000192
 42,0.00013430,0.00002053,-0.00010041,-0.00005417,-0.00001404,0.0001294
 5,-0.00014209,-0.00001322,0.00003262,0.00013705,-0.00002419,-0.0000055
 6,0.00001384,0.00003292,-0.00001860,-0.00001064,-0.00033078,0.00008041
 ,-0.00016533,0.00121578,0.00027938,0.00142587,0.00000655,-0.00027562,0
 .00002703,-0.00009652,0.00000080,0.00005686,0.00035246,-0.00037084,0.0
 0061716,-0.00005679,-0.00181620,0.00000908,-0.00045593,0.00054027,-0.0
 0028782,0.00017609,0.00016972,0.00140593,-0.00025852,0.00018259,0.0000
 6252,-0.00036462,-0.00016541,0.00030179,-0.00031267,-0.00168393,0.0006
 7498,-0.00027596,0.00022620,0.00051948,-0.00000412,0.00009776,-0.00001
 113,0.00053513,-0.00060055,0.00003493,0.00357479,0.01573997,0.,0.,0.,0
 .,0.,0.,0.00001518,0.00004198,0.00002474,-0.00003395,-0.00006735,0.000
 00298,0.,0.,0.,-0.00009918,0.00013578,0.00000171,-0.00012352,-0.000144
 76,-0.00004769,0.,0.,0.,0.00004400,0.00000030,0.00003495,-0.00003529,0
 .00000848,0.00000117,0.00054370,0.00058949,-0.00058981,-0.00009834,-0.
 00016895,0.00007572,0.00008998,0.00000875,-0.00019998,-0.00004388,-0.0
 0001171,0.00008675,-0.00024714,-0.00003534,0.00015298,0.00011518,-0.00
 007480,0.00002199,-0.00004941,0.00001203,0.00007684,-0.00043468,-0.000
 48971,0.00031206,0.00008327,0.00043538,-0.00018974,0.00006818,-0.00027
 538,0.00009466,0.00004284,0.00011443,0.00002859,0.00002036,0.00003733,
 0.00003225,0.00000281,-0.00006029,-0.00024649,0.00001380,-0.00000654,-
 0.00001266,0.00028866,0.00024089,-0.00026005,0.00007725,0.00004996,0.0
 0005726,-0.00020896,-0.00006510,-0.00219254,-0.00060111,-0.00085025,-0
 .00162749,-0.00059061,-0.00076800,0.00159464,-0.00051442,0.00002808,0.
 00054303,0.00034656,-0.00014600,-0.00016859,-0.00042921,-0.00041162,0.
 00030819,0.00016274,0.00023013,0.00020239,-0.00004244,-0.00027601,0.00
 007040,0.00040768,-0.00058247,-0.00058763,-0.00029971,0.00004253,0.000
 81379,0.00075184,0.00050603,-0.00054234,-0.00027257,0.00229677,-0.0013
 3372,-0.00015950,0.00004689,-0.00028342,0.00019538,0.00063442,-0.00211
 298,0.00006496,0.00044541,-0.00030732,0.00006034,0.00027779,0.00006342
 ,0.00002637,-0.00010889,-0.00015483,0.00027561,0.00010660,0.00005463,-
 0.00062608,0.00020508,0.00059629,0.00020797,0.00006825,-0.00010207,0.0
 0005936,-0.00009281,-0.00005927,0.00004636,0.00024335,-0.00021178,0.00
 000744,0.00008347,-0.00008403,-0.00008456,0.00007478,0.00015529,-0.000
 03007,-0.00000492,0.00006464,0.00019917,0.00021618,0.00041105,-0.00154
 435,0.00011260,-0.00150362,0.00010361,0.00006125,0.00018835,0.00012042
 ,0.00021155,-0.00025385,-0.00036124,0.00051670,-0.00044964,0.00028453,
 0.00056638,-0.00122802,-0.00006575,0.00043532,-0.00006706,0.00107319,0
 .00020559,-0.00663037,-0.00056008,0.00062357,-0.00114616,0.00081747,0.
 00082865,-0.00083066,0.00109364,0.00032501,-0.00205480,-0.00014067,-0.
 00003487,0.00008644,0.00048031,0.00015610,-0.00016313,-0.00028329,-0.0
 0010321,-0.00032431,0.00020182,-0.00584592,0.01980408\\0.,0.,0.,0.,0.,
 0.,-0.00000023,-0.00000045,-0.00000004,0.00000008,0.00000017,0.,0.,0.,
 0.,0.00000074,0.00000044,-0.00000052,-0.00000027,-0.00000006,0.0000001
 4,0.,0.,0.,-0.00000031,0.00000009,-0.00000022,0.00000023,-0.00000010,0
 .00000012,0.00000003,0.,0.,0.00000024,0.00000033,-0.00000015,-0.000000
 17,-0.00000029,0.00000018,0.00000004,0.00000002,-0.00000007,-0.0000005
 9,0.00000033,0.00000013,0.00000046,-0.00000010,0.00000062,-0.00000001,
 -0.00000005,-0.00000025,0.00000021,0.00000025,-0.00000019,-0.00000021,
 -0.00000081,0.00000046,-0.00000013,0.00000029,-0.00000008,0.00000019,0
 .00000045,-0.00000025,-0.00000007,-0.00000007,0.00000019,-0.00000015,0
 .00000005,-0.00000055,-0.00000003,-0.00000003,-0.00000006,-0.00000056,
 -0.00000033,0.00000036,0.00000008,0.00000002,-0.00000004,0.00000052,-0
 .00000031,-0.00000005,-0.00000012,0.00000050,0.00000010,-0.00000023,-0
 .00000011,-0.00000025,0.00000049,0.00000052,-0.00000006,-0.00000001,-0
 .00000017,0.,-0.00000003,-0.00000005,0.00000015,-0.00000005,0.00000003
 ,0.00000001,-0.00000016,-0.00000016,0.00000023,-0.00000032,-0.00000028
 ,-0.00000017,-0.00000008,0.00000003,0.00000003,-0.00000020,0.00000038,
 0.00000015,0.00000014,-0.00000070,0.00000038,0.00000017,-0.00000010,-0
 .00000025,0.00000013,0.00000023,-0.00000031,-0.00000019,0.00000024,-0.
 00000012,0.,0.00000009,0.00000006,-0.00000023,0.00000015,-0.00000002,-
 0.00000001,-0.00000010,0.00000017,0.00000018,0.00000027,-0.00000014,-0
 .00000044,0.00000001,-0.00000042,-0.00000004,-0.00000006,0.00000004,-0
 .00000004,-0.00000012,0.00000005,0.,0.,0.00000012,0.00000007,-0.000000
 09,0.00000005,0.00000031,0.00000002,0.00000013,0.00000032,0.00000062,0
 .00000028,0.00000018,-0.00000036,0.00000051,-0.00000003,-0.00000018,-0
 .00000030,0.,-0.00000027,-0.00000001,-0.00000028,-0.00000010,-0.000000
 11,-0.00000014,0.00000036,-0.00000025,0.00000007,-0.00000001,-0.000000
 05,-0.00000007,-0.00000031,0.00000043,-0.00000028,-0.00000060,0.000000
 48,0.00000005,-0.00000007,-0.00000010,0.00000017,0.00000013,-0.0000001
 9,-0.00000004,0.00000042,0.00000003,0.00000027,0.00000019,-0.00000019,
 -0.00000003,-0.00000004,-0.00000039,0.,0.,-0.00000001\\\@


 If your ship doesn't come in, swim out to it!
                          -- Jonathan Winters
 Job cpu time:       2 days  3 hours  1 minutes  4.6 seconds.
 Elapsed time:       0 days  0 hours 49 minutes 13.3 seconds.
 File lengths (MBytes):  RWF=   3717 Int=      0 D2E=      0 Chk=     36 Scr=      1
 Normal termination of Gaussian 16 at Thu Oct 10 12:08:36 2019.
