 Entering Gaussian System, Link 0=g16
 Input=Zn_PO_TEABr_CO_opt_freq3.com
 Output=Zn_PO_TEABr_CO_opt_freq3.log
 Initial command:
 /apps/commercial/G16/g16.linda/l1.exe "/scratch/x1711a05/Gau-39403.inp" -scrdir="/scratch/x1711a05/"
 Default linda workers: node4487
 Entering Link 1 = /apps/commercial/G16/g16.linda/l1.exe PID=     39404.
  
 Copyright (c) 1988,1990,1992,1993,1995,1998,2003,2009,2016,
            Gaussian, Inc.  All Rights Reserved.
  
 This is part of the Gaussian(R) 16 program.  It is based on
 the Gaussian(R) 09 system (copyright 2009, Gaussian, Inc.),
 the Gaussian(R) 03 system (copyright 2003, Gaussian, Inc.),
 the Gaussian(R) 98 system (copyright 1998, Gaussian, Inc.),
 the Gaussian(R) 94 system (copyright 1995, Gaussian, Inc.),
 the Gaussian 92(TM) system (copyright 1992, Gaussian, Inc.),
 the Gaussian 90(TM) system (copyright 1990, Gaussian, Inc.),
 the Gaussian 88(TM) system (copyright 1988, Gaussian, Inc.),
 the Gaussian 86(TM) system (copyright 1986, Carnegie Mellon
 University), and the Gaussian 82(TM) system (copyright 1983,
 Carnegie Mellon University). Gaussian is a federally registered
 trademark of Gaussian, Inc.
  
 This software contains proprietary and confidential information,
 including trade secrets, belonging to Gaussian, Inc.
  
 This software is provided under written license and may be
 used, copied, transmitted, or stored only in accord with that
 written license.
  
 The following legend is applicable only to US Government
 contracts under FAR:
  
                    RESTRICTED RIGHTS LEGEND
  
 Use, reproduction and disclosure by the US Government is
 subject to restrictions as set forth in subparagraphs (a)
 and (c) of the Commercial Computer Software - Restricted
 Rights clause in FAR 52.227-19.
  
 Gaussian, Inc.
 340 Quinnipiac St., Bldg. 40, Wallingford CT 06492
  
  
 ---------------------------------------------------------------
 Warning -- This program may not be used in any manner that
 competes with the business of Gaussian, Inc. or will provide
 assistance to any competitor of Gaussian, Inc.  The licensee
 of this program is prohibited from giving any competitor of
 Gaussian, Inc. access to this program.  By using this program,
 the user acknowledges that Gaussian, Inc. is engaged in the
 business of creating and licensing software in the field of
 computational chemistry and represents and warrants to the
 licensee that it is not a competitor of Gaussian, Inc. and that
 it will not use this program in any manner prohibited above.
 ---------------------------------------------------------------
  

 Cite this work as:
 Gaussian 16, Revision A.03,
 M. J. Frisch, G. W. Trucks, H. B. Schlegel, G. E. Scuseria, 
 M. A. Robb, J. R. Cheeseman, G. Scalmani, V. Barone, 
 G. A. Petersson, H. Nakatsuji, X. Li, M. Caricato, A. V. Marenich, 
 J. Bloino, B. G. Janesko, R. Gomperts, B. Mennucci, H. P. Hratchian, 
 J. V. Ortiz, A. F. Izmaylov, J. L. Sonnenberg, D. Williams-Young, 
 F. Ding, F. Lipparini, F. Egidi, J. Goings, B. Peng, A. Petrone, 
 T. Henderson, D. Ranasinghe, V. G. Zakrzewski, J. Gao, N. Rega, 
 G. Zheng, W. Liang, M. Hada, M. Ehara, K. Toyota, R. Fukuda, 
 J. Hasegawa, M. Ishida, T. Nakajima, Y. Honda, O. Kitao, H. Nakai, 
 T. Vreven, K. Throssell, J. A. Montgomery, Jr., J. E. Peralta, 
 F. Ogliaro, M. J. Bearpark, J. J. Heyd, E. N. Brothers, K. N. Kudin, 
 V. N. Staroverov, T. A. Keith, R. Kobayashi, J. Normand, 
 K. Raghavachari, A. P. Rendell, J. C. Burant, S. S. Iyengar, 
 J. Tomasi, M. Cossi, J. M. Millam, M. Klene, C. Adamo, R. Cammi, 
 J. W. Ochterski, R. L. Martin, K. Morokuma, O. Farkas, 
 J. B. Foresman, and D. J. Fox, Gaussian, Inc., Wallingford CT, 2016.
 
 ******************************************
 Gaussian 16:  ES64L-G16RevA.03 25-Dec-2016
                 9-Nov-2019 
 ******************************************
 %nprocshared=64
 Will use up to   64 processors via shared memory.
 %mem=64GB
 %chk=Zn_PO_TEABr_CO_opt_freq3.chk
 SetLPE:    new flags="-opt 'Tsnet.Node.lindarsharg: ssh'  -nodelist 'node4487' -env GAUSS_MDEF=8589934592 -env GAUSS_EXEDIR="/apps/commercial/G16/g16.linda""
 Will use up to    1 processors via Linda.
 ----------------------------------------------------------------------
 # opt=(calcall,tight,cartesian) freq cam-b3lyp/gen nosymm scf=(qc,maxc
 ycle=1024,vshift=100) pseudo=read
 ----------------------------------------------------------------------
 1/7=10,10=4,18=10,26=3,38=1/1,3;
 2/12=2,15=1,17=6,18=5,29=2,40=1/2;
 3/5=7,11=2,16=1,17=8,25=1,30=1,71=2,74=-40,140=1/1,2,3;
 4//1;
 5/5=2,7=1024,8=3,10=100,38=5/8;
 8/6=4,10=90,11=11/1;
 11/6=1,8=1,9=11,15=111,16=1,31=1/1,2,10;
 10/6=1,31=1/2;
 6/7=2,8=2,9=2,10=2,18=1,28=1/1;
 7/7=1,10=1,25=1,30=1/1,2,3,16;
 1/7=10,10=4,18=10,26=3/3(3);
 2/15=1,29=1/2;
 7/7=1,8=1,9=1,25=1,30=1,44=-1/16;
 99/12=1/99;
 2/15=1,29=1/2;
 3/5=7,6=1,11=2,16=1,17=8,25=1,30=1,71=2,74=-40,82=7,140=1/1,2,3;
 4/5=5,16=3,69=1/1;
 5/5=2,7=1024,8=3,10=100,38=5/8;
 8/6=4,10=90,11=11/1;
 11/6=1,8=1,9=11,15=111,16=1,31=1/1,2,10;
 10/6=1,31=1/2;
 7/7=1,10=1,25=1,30=1/1,2,3,16;
 1/7=10,10=4,18=10,26=3/3(-8);
 2/15=1,29=1/2;
 6/7=2,8=2,9=2,10=2,18=1,19=2,28=1/1;
 7/7=1,8=1,9=1,25=1,30=1,44=-1/16;
 99/12=1/99;
 ------------------------
 Zn_PO_TEABr_CO_opt_freq3
 ------------------------
 Symbolic Z-matrix:
 Charge =  0 Multiplicity = 1
 Li                   -1   -0.65617  -5.03839  -3.45744 
 N                    -1   -0.28279  -3.67558  -2.19468 
 C                    0    -1.44837  -3.72473  -1.48581 
 Cl                   0    -2.56545  -5.0205   -1.82242 
 N                    -1    2.32823   2.59905  -2.41943 
 C                    0     3.34228   1.75377  -2.10777 
 Cl                   0     4.98672   2.08203  -2.54118 
 N                    -1   -3.32748   2.07508   1.06573 
 C                    0    -3.50212   2.09401  -0.27414 
 Cl                   0    -4.87701   2.82913  -1.02648 
 Zn                   0     0.14241  -0.07737   0.04551 
 N                    0    -0.38957  -1.93008  -0.79696 
 C                    0    -1.52704  -2.66612  -0.63084 
 Cl                   0    -2.78022  -2.26095   0.45731 
 N                    0    -1.58549   1.03347   0.0634 
 C                    0    -2.45447   1.45899  -0.89606 
 Cl                   0    -2.21166   1.15083  -2.5801 
 N                    0     1.50948   0.82458  -1.27249 
 C                    0     2.8569    0.67426  -1.41048 
 Cl                   0     3.70268  -0.70552  -0.81536 
 C                    0     0.31384  -2.56826  -1.73466 
 H                    0     1.27508  -2.21782  -2.08258 
 C                    0    -2.17776   1.43213   1.21711 
 H                    0    -1.73881   1.20714   2.17974 
 C                    0     1.25894   1.99227  -1.90522 
 H                    0     0.25404   2.38189  -1.99073 
 C                    0     1.81585   0.65043   2.36463 
 C                    0     1.07189   1.54913   3.3573 
 O                    0     0.85179  -0.18821   1.83267 
 C                    0     2.94027  -0.13856   3.02986 
 H                    0     0.24256   2.06116   2.87624 
 H                    0     0.71515   0.98105   4.21406 
 H                    0     3.40481  -0.79163   2.28839 
 H                    0     2.53374  -0.75914   3.83359 
 H                    0     3.70725   0.51728   3.45152 
 H                    0     2.27496   1.30154   1.59488 
 N                    0     2.31436   5.43727   0.36529 
 C                    0     1.99488   6.1215    1.68898 
 C                    0     3.03958   7.06353   2.26934 
 H                    0     1.77883   5.31835   2.39452 
 H                    0     1.07204   6.67986   1.5206 
 H                    0     2.67969   7.3615    3.25732 
 H                    0     4.01532   6.5995    2.40688 
 H                    0     3.16092   7.97521   1.68197 
 C                    0     3.0816    6.37324  -0.54445 
 C                    0     3.55579   5.77783  -1.86149 
 H                    0     3.93904   6.7301    0.02171 
 H                    0     2.4194    7.22673  -0.71105 
 H                    0     3.95714   6.5982   -2.46193 
 H                    0     4.35691   5.05089  -1.72038 
 H                    0     2.77542   5.28292  -2.43898 
 C                    0     0.98767   5.10501  -0.31872 
 C                    0     0.01189   4.27022   0.4916 
 H                    0     1.24765   4.58063  -1.2367 
 H                    0     0.54781   6.07192  -0.57426 
 H                    0    -0.8968    4.15115  -0.10405 
 H                    0     0.38002   3.26328   0.68406 
 H                    0    -0.28088   4.73318   1.43496 
 C                    0     3.06658   4.13229   0.57418 
 C                    0     4.45612   4.23753   1.17273 
 H                    0     3.09192   3.65014  -0.40172 
 H                    0     2.44346   3.53126   1.23257 
 H                    0     4.89515   3.23862   1.11954 
 H                    0     5.1193    4.90961   0.62382 
 H                    0     4.43488   4.51855   2.22606 
 Br                   0     2.1897    3.01342   4.11885 
 C                    0    -0.00802  -2.16359   3.28379 
 O                    0    -0.02646  -1.54063   4.27063 
 O                    0    -0.02875  -2.88557   2.36976 
 

 GradGradGradGradGradGradGradGradGradGradGradGradGradGradGradGradGradGrad
 Berny optimization.
 Initialization pass.
 No Z-matrix variables, so optimization will use Cartesian coordinates.
 Trust Radius=3.00D-01 FncErr=1.00D-07 GrdErr=1.00D-06 EigMax=2.50D+02 EigMin=1.00D-04
 Number of steps in this run=    217 maximum allowed number of steps=    414.
 GradGradGradGradGradGradGradGradGradGradGradGradGradGradGradGradGradGrad

 Symmetry turned off by external request.
 Stoichiometry    C21H29BrCl6LiN7O3Zn
 Framework group  C1[X(C21H29BrCl6LiN7O3Zn)]
 Deg. of freedom   201
 Full point group                 C1      NOp   1
                          Input orientation:                          
 ---------------------------------------------------------------------
 Center     Atomic      Atomic             Coordinates (Angstroms)
 Number     Number       Type             X           Y           Z
 ---------------------------------------------------------------------
      1          3           0       -0.656174   -5.038394   -3.457440
      2          7           0       -0.282792   -3.675582   -2.194684
      3          6           0       -1.448368   -3.724730   -1.485808
      4         17           0       -2.565447   -5.020503   -1.822416
      5          7           0        2.328228    2.599049   -2.419433
      6          6           0        3.342279    1.753767   -2.107771
      7         17           0        4.986723    2.082026   -2.541176
      8          7           0       -3.327483    2.075083    1.065729
      9          6           0       -3.502122    2.094014   -0.274138
     10         17           0       -4.877014    2.829127   -1.026475
     11         30           0        0.142413   -0.077367    0.045513
     12          7           0       -0.389574   -1.930075   -0.796955
     13          6           0       -1.527041   -2.666115   -0.630842
     14         17           0       -2.780222   -2.260948    0.457308
     15          7           0       -1.585488    1.033467    0.063403
     16          6           0       -2.454466    1.458989   -0.896058
     17         17           0       -2.211657    1.150834   -2.580096
     18          7           0        1.509478    0.824581   -1.272487
     19          6           0        2.856895    0.674260   -1.410476
     20         17           0        3.702675   -0.705521   -0.815360
     21          6           0        0.313842   -2.568256   -1.734660
     22          1           0        1.275082   -2.217820   -2.082576
     23          6           0       -2.177761    1.432130    1.217113
     24          1           0       -1.738808    1.207144    2.179742
     25          6           0        1.258938    1.992266   -1.905216
     26          1           0        0.254042    2.381893   -1.990727
     27          6           0        1.815846    0.650429    2.364629
     28          6           0        1.071886    1.549128    3.357301
     29          8           0        0.851790   -0.188208    1.832671
     30          6           0        2.940265   -0.138564    3.029858
     31          1           0        0.242564    2.061165    2.876238
     32          1           0        0.715150    0.981047    4.214062
     33          1           0        3.404807   -0.791629    2.288385
     34          1           0        2.533738   -0.759138    3.833586
     35          1           0        3.707254    0.517281    3.451517
     36          1           0        2.274961    1.301538    1.594881
     37          7           0        2.314362    5.437274    0.365287
     38          6           0        1.994882    6.121498    1.688981
     39          6           0        3.039580    7.063527    2.269343
     40          1           0        1.778832    5.318354    2.394524
     41          1           0        1.072043    6.679857    1.520596
     42          1           0        2.679686    7.361503    3.257319
     43          1           0        4.015316    6.599503    2.406882
     44          1           0        3.160924    7.975209    1.681966
     45          6           0        3.081601    6.373240   -0.544452
     46          6           0        3.555786    5.777831   -1.861490
     47          1           0        3.939039    6.730095    0.021711
     48          1           0        2.419400    7.226726   -0.711054
     49          1           0        3.957135    6.598199   -2.461932
     50          1           0        4.356914    5.050890   -1.720376
     51          1           0        2.775417    5.282916   -2.438976
     52          6           0        0.987674    5.105007   -0.318717
     53          6           0        0.011888    4.270222    0.491601
     54          1           0        1.247650    4.580633   -1.236703
     55          1           0        0.547807    6.071920   -0.574255
     56          1           0       -0.896796    4.151147   -0.104053
     57          1           0        0.380021    3.263279    0.684055
     58          1           0       -0.280879    4.733181    1.434957
     59          6           0        3.066582    4.132287    0.574182
     60          6           0        4.456123    4.237526    1.172731
     61          1           0        3.091915    3.650139   -0.401719
     62          1           0        2.443459    3.531255    1.232571
     63          1           0        4.895154    3.238615    1.119540
     64          1           0        5.119297    4.909610    0.623817
     65          1           0        4.434884    4.518547    2.226059
     66         35           0        2.189701    3.013423    4.118846
     67          6           0       -0.008015   -2.163586    3.283791
     68          8           0       -0.026455   -1.540634    4.270631
     69          8           0       -0.028748   -2.885573    2.369759
 ---------------------------------------------------------------------
 Rotational constants (GHZ):           0.0745246           0.0416210           0.0410397
 General basis read from cards:  (5D, 7F)
 ======================================================================================================
                                       Pseudopotential Parameters
 ======================================================================================================
  Center     Atomic      Valence      Angular      Power
  Number     Number     Electrons     Momentum     of R      Exponent        Coefficient   SO-Coeffient
 ======================================================================================================
    1          3
                                   No pseudopotential on this center.
    2          7
                                   No pseudopotential on this center.
    3          6
                                   No pseudopotential on this center.
    4         17
                                   No pseudopotential on this center.
    5          7
                                   No pseudopotential on this center.
    6          6
                                   No pseudopotential on this center.
    7         17
                                   No pseudopotential on this center.
    8          7
                                   No pseudopotential on this center.
    9          6
                                   No pseudopotential on this center.
   10         17
                                   No pseudopotential on this center.
   11         30           12
                                      F and up 
                                                     1      386.7379660      -18.00000000    0.00000000
                                                     2       72.8587359     -124.35274030    0.00000000
                                                     2       15.9066170      -30.66018220    0.00000000
                                                     2        4.3502340      -10.63589890    0.00000000
                                                     2        1.2842199       -0.76836230    0.00000000
                                      S - F
                                                     0       19.0867858        3.00000000    0.00000000
                                                     1        5.0231080       22.52342250    0.00000000
                                                     2        1.2701744       48.44659420    0.00000000
                                                     2        1.0671287      -44.55601190    0.00000000
                                                     2        0.9264190       12.99839580    0.00000000
                                      P - F
                                                     0       43.4927750        5.00000000    0.00000000
                                                     1       20.8692669       20.74355890    0.00000000
                                                     2       21.7118378       90.30271580    0.00000000
                                                     2        6.3616915       74.66103160    0.00000000
                                                     2        1.2291195        9.88944240    0.00000000
                                      D - F
                                                     2       13.5851800       -4.84903590    0.00000000
                                                     2        9.8373050        3.69133790    0.00000000
                                                     2        0.8373113       -0.50373190    0.00000000
   12          7
                                   No pseudopotential on this center.
   13          6
                                   No pseudopotential on this center.
   14         17
                                   No pseudopotential on this center.
   15          7
                                   No pseudopotential on this center.
   16          6
                                   No pseudopotential on this center.
   17         17
                                   No pseudopotential on this center.
   18          7
                                   No pseudopotential on this center.
   19          6
                                   No pseudopotential on this center.
   20         17
                                   No pseudopotential on this center.
   21          6
                                   No pseudopotential on this center.
   22          1
                                   No pseudopotential on this center.
   23          6
                                   No pseudopotential on this center.
   24          1
                                   No pseudopotential on this center.
   25          6
                                   No pseudopotential on this center.
   26          1
                                   No pseudopotential on this center.
   27          6
                                   No pseudopotential on this center.
   28          6
                                   No pseudopotential on this center.
   29          8
                                   No pseudopotential on this center.
   30          6
                                   No pseudopotential on this center.
   31          1
                                   No pseudopotential on this center.
   32          1
                                   No pseudopotential on this center.
   33          1
                                   No pseudopotential on this center.
   34          1
                                   No pseudopotential on this center.
   35          1
                                   No pseudopotential on this center.
   36          1
                                   No pseudopotential on this center.
   37          7
                                   No pseudopotential on this center.
   38          6
                                   No pseudopotential on this center.
   39          6
                                   No pseudopotential on this center.
   40          1
                                   No pseudopotential on this center.
   41          1
                                   No pseudopotential on this center.
   42          1
                                   No pseudopotential on this center.
   43          1
                                   No pseudopotential on this center.
   44          1
                                   No pseudopotential on this center.
   45          6
                                   No pseudopotential on this center.
   46          6
                                   No pseudopotential on this center.
   47          1
                                   No pseudopotential on this center.
   48          1
                                   No pseudopotential on this center.
   49          1
                                   No pseudopotential on this center.
   50          1
                                   No pseudopotential on this center.
   51          1
                                   No pseudopotential on this center.
   52          6
                                   No pseudopotential on this center.
   53          6
                                   No pseudopotential on this center.
   54          1
                                   No pseudopotential on this center.
   55          1
                                   No pseudopotential on this center.
   56          1
                                   No pseudopotential on this center.
   57          1
                                   No pseudopotential on this center.
   58          1
                                   No pseudopotential on this center.
   59          6
                                   No pseudopotential on this center.
   60          6
                                   No pseudopotential on this center.
   61          1
                                   No pseudopotential on this center.
   62          1
                                   No pseudopotential on this center.
   63          1
                                   No pseudopotential on this center.
   64          1
                                   No pseudopotential on this center.
   65          1
                                   No pseudopotential on this center.
   66         35
                                   No pseudopotential on this center.
   67          6
                                   No pseudopotential on this center.
   68          8
                                   No pseudopotential on this center.
   69          8
                                   No pseudopotential on this center.
 ======================================================================================================
   747 basis functions,  1533 primitive gaussians,   789 cartesian basis functions
   190 alpha electrons      190 beta electrons
       nuclear repulsion energy      7427.0423337693 Hartrees.
 NAtoms=   69 NActive=   69 NUniq=   69 SFac= 1.00D+00 NAtFMM=   60 NAOKFM=T Big=T
 Integral buffers will be    131072 words long.
 Raffenetti 2 integral format.
 Two-electron integral symmetry is turned off.
 One-electron integrals computed using PRISM.
   1 Symmetry operations used in ECPInt.
 ECPInt:  NShTT=   34716 NPrTT=  206045 LenC2=   26209 LenP2D=   79734.
 LDataN:  DoStor=T MaxTD1= 5 Len=  102
 NBasis=   747 RedAO= T EigKep=  1.37D-03  NBF=   747
 NBsUse=   747 1.00D-06 EigRej= -1.00D+00 NBFU=   747
 ExpMin= 3.51D-02 ExpMax= 5.74D+05 ExpMxC= 5.74D+03 IAcc=3 IRadAn=         5 AccDes= 0.00D+00
 Harris functional with IExCor=20419 and IRadAn=       5 diagonalized for initial guess.
 HarFok:  IExCor=20419 AccDes= 0.00D+00 IRadAn=         5 IDoV= 1 UseB2=F ITyADJ=14
 ICtDFT=  3500011 ScaDFX=  1.000000  1.000000  1.000000  1.000000
 FoFCou: FMM=F IPFlag=           0 FMFlag=      100000 FMFlg1=        2001
         NFxFlg=           0 DoJE=T BraDBF=F KetDBF=T FulRan=T
         wScrn=  0.000000 ICntrl=       500 IOpCl=  0 I1Cent=   200000004 NGrid=           0
         NMat0=    1 NMatS0=      1 NMatT0=    0 NMatD0=    1 NMtDS0=    0 NMtDT0=    0
 Symmetry not used in FoFCou.
 Gradient too large for Newton-Raphson -- use scaled steepest descent instead.
 Gradient too large for Newton-Raphson -- use scaled steepest descent instead.
     Accept linear search using points  2 and  3.
 Gradient too large for Newton-Raphson -- use scaled steepest descent instead.
 Gradient too large for Newton-Raphson -- use scaled steepest descent instead.
     Accept linear search using points  1 and  2.
 Gradient too large for Newton-Raphson -- use scaled steepest descent instead.
 Gradient too large for Newton-Raphson -- use scaled steepest descent instead.
     Accept linear search using points  1 and  2.
 LinEq1:  Iter=  0 NonCon=     1 RMS=1.84D-05 Max=1.43D-03 NDo=     1
 AX will form     1 AO Fock derivatives at one time.
 LinEq1:  Iter=  1 NonCon=     1 RMS=7.32D-06 Max=3.60D-04 NDo=     1
 LinEq1:  Iter=  2 NonCon=     1 RMS=2.05D-06 Max=1.10D-04 NDo=     1
 LinEq1:  Iter=  3 NonCon=     1 RMS=1.19D-06 Max=7.94D-05 NDo=     1
 LinEq1:  Iter=  4 NonCon=     1 RMS=4.89D-07 Max=2.83D-05 NDo=     1
 LinEq1:  Iter=  5 NonCon=     1 RMS=2.92D-07 Max=2.61D-05 NDo=     1
 LinEq1:  Iter=  6 NonCon=     1 RMS=2.16D-07 Max=1.70D-05 NDo=     1
 LinEq1:  Iter=  7 NonCon=     1 RMS=9.42D-08 Max=3.89D-06 NDo=     1
 LinEq1:  Iter=  8 NonCon=     1 RMS=5.32D-08 Max=2.55D-06 NDo=     1
 LinEq1:  Iter=  9 NonCon=     1 RMS=2.98D-08 Max=1.51D-06 NDo=     1
 LinEq1:  Iter= 10 NonCon=     1 RMS=1.55D-08 Max=6.94D-07 NDo=     1
 LinEq1:  Iter= 11 NonCon=     0 RMS=5.95D-09 Max=2.55D-07 NDo=     1
 Linear equations converged to 4.524D-08 4.524D-07 after    11 iterations.
     Accept linear search using points  1 and  2.
     Minimum is close to point  2 DX= -1.19D-04 DF= -9.09D-13 DXR=  1.19D-04 DFR=  2.18D-08 which will be used.
 LinEq1:  Iter=  0 NonCon=     1 RMS=2.66D-08 Max=2.42D-06 NDo=     1
 LinEq1:  Iter=  1 NonCon=     1 RMS=1.63D-08 Max=1.80D-06 NDo=     1
 LinEq1:  Iter=  2 NonCon=     1 RMS=8.84D-09 Max=7.39D-07 NDo=     1
 LinEq1:  Iter=  3 NonCon=     1 RMS=4.68D-09 Max=3.58D-07 NDo=     1
 LinEq1:  Iter=  4 NonCon=     1 RMS=2.86D-09 Max=2.41D-07 NDo=     1
 LinEq1:  Iter=  5 NonCon=     1 RMS=1.92D-09 Max=1.40D-07 NDo=     1
 LinEq1:  Iter=  6 NonCon=     1 RMS=8.35D-10 Max=5.17D-08 NDo=     1
 LinEq1:  Iter=  7 NonCon=     1 RMS=5.62D-10 Max=4.00D-08 NDo=     1
 LinEq1:  Iter=  8 NonCon=     1 RMS=2.39D-10 Max=1.13D-08 NDo=     1
 LinEq1:  Iter=  9 NonCon=     1 RMS=1.62D-10 Max=8.17D-09 NDo=     1
 LinEq1:  Iter= 10 NonCon=     1 RMS=6.89D-11 Max=4.79D-09 NDo=     1
 LinEq1:  Iter= 11 NonCon=     1 RMS=3.62D-11 Max=1.67D-09 NDo=     1
 LinEq1:  Iter= 12 NonCon=     1 RMS=1.89D-11 Max=1.30D-09 NDo=     1
 LinEq1:  Iter= 13 NonCon=     0 RMS=9.24D-12 Max=5.43D-10 NDo=     1
 Linear equations converged to 9.300D-11 9.300D-10 after    13 iterations.
 SCF Done:  E(RCAM-B3LYP) =  -6831.76648827     a.u. after    9 cycles
            Convg  =    0.3015D-09                    44 Fock formations.
              S**2 =  0.0000                  -V/T =  1.9949
 DoSCS=F DFT=T ScalE2(SS,OS)=  1.000000  1.000000
 Range of M.O.s used for correlation:     1   747
 NBasis=   747 NAE=   190 NBE=   190 NFC=     0 NFV=     0
 NROrb=    747 NOA=   190 NOB=   190 NVA=   557 NVB=   557
   1 Symmetry operations used in ECPInt.
 ECPInt:  NShTT=   34716 NPrTT=  206045 LenC2=   26209 LenP2D=   79734.
 LDataN:  DoStor=T MaxTD1= 6 Len=  172
 Number of processors reduced to  11 by ecpmxn.
 Symmetrizing basis deriv contribution to polar:
 IMax=3 JMax=2 DiffMx= 0.00D+00
 G2DrvN: will do    70 centers at a time, making    1 passes.
 Calling FoFCou, ICntrl=  3107 FMM=T I1Cent=   0 AccDes= 0.00D+00.
 End of G2Drv F.D. properties file   721 does not exist.
 End of G2Drv F.D. properties file   722 does not exist.
 End of G2Drv F.D. properties file   788 does not exist.
          IDoAtm=00110110111111111111111111111111111111111111111111
          IDoAtm=1111111111111111111
          Differentiating once with respect to electric field.
                with respect to dipole field.
          Differentiating once with respect to nuclear coordinates.
 CalDSu exits because no D1Ps are significant.
          There are   198 degrees of freedom in the 1st order CPHF.  IDoFFX=6 NUNeed=     3.
    198 vectors produced by pass  0 Test12= 1.06D-13 1.00D-09 XBig12= 1.80D+02 2.18D+00.
 AX will form    96 AO Fock derivatives at one time.
    198 vectors produced by pass  1 Test12= 1.06D-13 1.00D-09 XBig12= 2.54D+01 7.92D-01.
    198 vectors produced by pass  2 Test12= 1.06D-13 1.00D-09 XBig12= 6.34D-01 1.04D-01.
    198 vectors produced by pass  3 Test12= 1.06D-13 1.00D-09 XBig12= 1.64D-02 2.77D-02.
    198 vectors produced by pass  4 Test12= 1.06D-13 1.00D-09 XBig12= 1.64D-04 2.97D-03.
    198 vectors produced by pass  5 Test12= 1.06D-13 1.00D-09 XBig12= 9.40D-07 1.52D-04.
    123 vectors produced by pass  6 Test12= 1.06D-13 1.00D-09 XBig12= 4.47D-09 7.00D-06.
     41 vectors produced by pass  7 Test12= 1.06D-13 1.00D-09 XBig12= 1.90D-11 3.26D-07.
      4 vectors produced by pass  8 Test12= 1.06D-13 1.00D-09 XBig12= 7.48D-14 2.88D-08.
      3 vectors produced by pass  9 Test12= 1.06D-13 1.00D-09 XBig12= 6.13D-16 1.70D-09.
 InvSVY:  IOpt=1 It=  1 EMax= 8.88D-15
 Solved reduced A of dimension  1359 with   198 vectors.
 Isotropic polarizability for W=    0.000000      358.07 Bohr**3.
 End of Minotr F.D. properties file   721 does not exist.
 End of Minotr F.D. properties file   722 does not exist.
 End of Minotr F.D. properties file   788 does not exist.

 **********************************************************************

            Population analysis using the SCF density.

 **********************************************************************

 Alpha  occ. eigenvalues -- -482.71315-101.64954-101.60089-101.59449-101.58984
 Alpha  occ. eigenvalues -- -101.57847-101.56027 -61.79513 -56.36473 -56.36178
 Alpha  occ. eigenvalues --  -56.36156 -19.25816 -19.25810 -19.12798 -14.55454
 Alpha  occ. eigenvalues --  -14.42394 -14.41972 -14.39804 -14.37715 -14.37459
 Alpha  occ. eigenvalues --  -14.34332 -10.41831 -10.34456 -10.34280 -10.33975
 Alpha  occ. eigenvalues --  -10.33570 -10.33268 -10.32331 -10.31706 -10.30966
 Alpha  occ. eigenvalues --  -10.30331 -10.29536 -10.28663 -10.28217 -10.28114
 Alpha  occ. eigenvalues --  -10.27891 -10.27775 -10.27760 -10.27744 -10.26966
 Alpha  occ. eigenvalues --  -10.25659 -10.20872  -9.58190  -9.53250  -9.52613
 Alpha  occ. eigenvalues --   -9.52205  -9.51008  -9.49289  -8.57702  -7.34562
 Alpha  occ. eigenvalues --   -7.33718  -7.33574  -7.29735  -7.29055  -7.28660
 Alpha  occ. eigenvalues --   -7.28651  -7.28629  -7.28056  -7.28038  -7.27656
 Alpha  occ. eigenvalues --   -7.27629  -7.27437  -7.26451  -7.26447  -7.25715
 Alpha  occ. eigenvalues --   -7.24730  -7.24713  -6.59343  -6.58276  -6.58243
 Alpha  occ. eigenvalues --   -2.71516  -2.71220  -2.71194  -2.70348  -2.70347
 Alpha  occ. eigenvalues --   -2.14402  -1.19694  -1.15266  -1.12153  -1.11078
 Alpha  occ. eigenvalues --   -1.07560  -1.05104  -1.00674  -0.99213  -0.96234
 Alpha  occ. eigenvalues --   -0.94694  -0.93511  -0.92442  -0.91417  -0.91072
 Alpha  occ. eigenvalues --   -0.90410  -0.89749  -0.89130  -0.88345  -0.86095
 Alpha  occ. eigenvalues --   -0.85939  -0.84272  -0.79969  -0.78166  -0.76806
 Alpha  occ. eigenvalues --   -0.76567  -0.76409  -0.74637  -0.74167  -0.72406
 Alpha  occ. eigenvalues --   -0.67865  -0.67780  -0.65511  -0.64893  -0.64495
 Alpha  occ. eigenvalues --   -0.64153  -0.63638  -0.63259  -0.62947  -0.62268
 Alpha  occ. eigenvalues --   -0.61786  -0.61383  -0.61295  -0.60850  -0.59962
 Alpha  occ. eigenvalues --   -0.59173  -0.58962  -0.58716  -0.57748  -0.56392
 Alpha  occ. eigenvalues --   -0.55314  -0.54585  -0.54267  -0.54134  -0.53782
 Alpha  occ. eigenvalues --   -0.53570  -0.52870  -0.52712  -0.51837  -0.51539
 Alpha  occ. eigenvalues --   -0.50658  -0.49893  -0.49424  -0.49181  -0.48909
 Alpha  occ. eigenvalues --   -0.48598  -0.48342  -0.48107  -0.47949  -0.47409
 Alpha  occ. eigenvalues --   -0.47298  -0.47249  -0.46859  -0.45980  -0.45783
 Alpha  occ. eigenvalues --   -0.45673  -0.45562  -0.44972  -0.44399  -0.44101
 Alpha  occ. eigenvalues --   -0.43688  -0.43555  -0.43300  -0.43030  -0.42972
 Alpha  occ. eigenvalues --   -0.42543  -0.40987  -0.40519  -0.40243  -0.39860
 Alpha  occ. eigenvalues --   -0.39709  -0.39077  -0.38720  -0.38561  -0.38545
 Alpha  occ. eigenvalues --   -0.38170  -0.37819  -0.37433  -0.37111  -0.36352
 Alpha  occ. eigenvalues --   -0.35744  -0.35512  -0.33797  -0.33301  -0.33000
 Alpha  occ. eigenvalues --   -0.32589  -0.32468  -0.30527  -0.29400  -0.28120
 Alpha  occ. eigenvalues --   -0.27864  -0.27814  -0.26560  -0.24949  -0.22551
 Alpha virt. eigenvalues --   -0.04535   0.01324   0.02095   0.06150   0.06548
 Alpha virt. eigenvalues --    0.06782   0.07521   0.08189   0.09514   0.09865
 Alpha virt. eigenvalues --    0.10162   0.10514   0.11012   0.11162   0.11822
 Alpha virt. eigenvalues --    0.12156   0.12328   0.12558   0.12897   0.13127
 Alpha virt. eigenvalues --    0.13329   0.13424   0.13494   0.13683   0.13919
 Alpha virt. eigenvalues --    0.14365   0.14447   0.14653   0.14867   0.15359
 Alpha virt. eigenvalues --    0.15502   0.15633   0.16006   0.16295   0.16724
 Alpha virt. eigenvalues --    0.17336   0.18218   0.18522   0.19157   0.19380
 Alpha virt. eigenvalues --    0.19696   0.19994   0.20410   0.20928   0.21774
 Alpha virt. eigenvalues --    0.22102   0.22248   0.22976   0.23498   0.23827
 Alpha virt. eigenvalues --    0.24330   0.24417   0.25171   0.25531   0.25621
 Alpha virt. eigenvalues --    0.26269   0.26434   0.26690   0.27396   0.27430
 Alpha virt. eigenvalues --    0.27835   0.28296   0.28607   0.28819   0.29207
 Alpha virt. eigenvalues --    0.29821   0.30658   0.31085   0.32198   0.33108
 Alpha virt. eigenvalues --    0.33376   0.33743   0.33918   0.34842   0.35426
 Alpha virt. eigenvalues --    0.36419   0.37038   0.38648   0.39195   0.40567
 Alpha virt. eigenvalues --    0.41421   0.42072   0.42186   0.42827   0.43388
 Alpha virt. eigenvalues --    0.44023   0.44149   0.44939   0.45911   0.46920
 Alpha virt. eigenvalues --    0.47485   0.47749   0.47874   0.48302   0.48507
 Alpha virt. eigenvalues --    0.48854   0.49596   0.49773   0.50257   0.50539
 Alpha virt. eigenvalues --    0.50608   0.50927   0.51143   0.51475   0.52215
 Alpha virt. eigenvalues --    0.52585   0.53243   0.53561   0.53913   0.54199
 Alpha virt. eigenvalues --    0.54656   0.54985   0.55349   0.55661   0.55820
 Alpha virt. eigenvalues --    0.56182   0.56484   0.56940   0.57235   0.58196
 Alpha virt. eigenvalues --    0.58573   0.58919   0.59203   0.59858   0.60528
 Alpha virt. eigenvalues --    0.60753   0.61878   0.62236   0.62536   0.63131
 Alpha virt. eigenvalues --    0.63337   0.63563   0.63819   0.64935   0.65011
 Alpha virt. eigenvalues --    0.65256   0.65430   0.65896   0.66709   0.67376
 Alpha virt. eigenvalues --    0.67690   0.68042   0.68433   0.68811   0.69390
 Alpha virt. eigenvalues --    0.69594   0.70052   0.70115   0.70758   0.71164
 Alpha virt. eigenvalues --    0.71722   0.71869   0.72075   0.73358   0.73514
 Alpha virt. eigenvalues --    0.73834   0.74381   0.74904   0.75311   0.75425
 Alpha virt. eigenvalues --    0.76514   0.76636   0.77008   0.77600   0.78426
 Alpha virt. eigenvalues --    0.78501   0.79474   0.80099   0.80405   0.80840
 Alpha virt. eigenvalues --    0.81276   0.82219   0.83186   0.83625   0.84003
 Alpha virt. eigenvalues --    0.84334   0.84823   0.85600   0.86161   0.86558
 Alpha virt. eigenvalues --    0.87424   0.87762   0.87936   0.88068   0.88514
 Alpha virt. eigenvalues --    0.88927   0.89579   0.90045   0.90245   0.90734
 Alpha virt. eigenvalues --    0.90941   0.91234   0.91534   0.91867   0.92247
 Alpha virt. eigenvalues --    0.92401   0.92803   0.93152   0.93319   0.93406
 Alpha virt. eigenvalues --    0.93625   0.93910   0.94178   0.94522   0.94866
 Alpha virt. eigenvalues --    0.95037   0.95577   0.95975   0.95990   0.96124
 Alpha virt. eigenvalues --    0.96519   0.96923   0.97107   0.97605   0.97819
 Alpha virt. eigenvalues --    0.97905   0.98406   0.98864   0.98988   0.99243
 Alpha virt. eigenvalues --    0.99990   1.00558   1.01179   1.01473   1.01831
 Alpha virt. eigenvalues --    1.01982   1.02416   1.02590   1.03361   1.03650
 Alpha virt. eigenvalues --    1.03964   1.04246   1.04565   1.04931   1.05219
 Alpha virt. eigenvalues --    1.05677   1.06089   1.06520   1.06832   1.07410
 Alpha virt. eigenvalues --    1.07937   1.08155   1.08919   1.09009   1.09266
 Alpha virt. eigenvalues --    1.09802   1.10234   1.10490   1.11319   1.11563
 Alpha virt. eigenvalues --    1.12015   1.12721   1.12935   1.13279   1.13809
 Alpha virt. eigenvalues --    1.13977   1.15098   1.15298   1.16203   1.16436
 Alpha virt. eigenvalues --    1.17257   1.17849   1.18543   1.18722   1.19509
 Alpha virt. eigenvalues --    1.20318   1.21153   1.21768   1.22359   1.23287
 Alpha virt. eigenvalues --    1.24211   1.24350   1.25139   1.26020   1.26998
 Alpha virt. eigenvalues --    1.27558   1.28876   1.29510   1.29992   1.31474
 Alpha virt. eigenvalues --    1.32922   1.34401   1.35021   1.36527   1.36924
 Alpha virt. eigenvalues --    1.37754   1.40037   1.40965   1.42220   1.42446
 Alpha virt. eigenvalues --    1.42987   1.43188   1.44774   1.45153   1.45364
 Alpha virt. eigenvalues --    1.46135   1.46951   1.47756   1.48604   1.48708
 Alpha virt. eigenvalues --    1.48979   1.49493   1.50628   1.50862   1.51241
 Alpha virt. eigenvalues --    1.51459   1.52013   1.52311   1.52773   1.54396
 Alpha virt. eigenvalues --    1.54535   1.56096   1.57098   1.58618   1.59464
 Alpha virt. eigenvalues --    1.60215   1.60790   1.62107   1.63014   1.64070
 Alpha virt. eigenvalues --    1.65010   1.65314   1.65752   1.65913   1.66471
 Alpha virt. eigenvalues --    1.67326   1.67770   1.67981   1.68382   1.68683
 Alpha virt. eigenvalues --    1.69977   1.70198   1.71820   1.72374   1.72953
 Alpha virt. eigenvalues --    1.73340   1.74233   1.74763   1.75459   1.75945
 Alpha virt. eigenvalues --    1.76324   1.76907   1.78059   1.79604   1.81762
 Alpha virt. eigenvalues --    1.82583   1.83712   1.84805   1.86044   1.86222
 Alpha virt. eigenvalues --    1.86977   1.88072   1.88667   1.91420   1.92995
 Alpha virt. eigenvalues --    1.93938   1.94022   1.95119   1.95250   1.96642
 Alpha virt. eigenvalues --    1.96880   1.97069   1.97667   1.99099   1.99726
 Alpha virt. eigenvalues --    2.00312   2.01415   2.03471   2.03787   2.04513
 Alpha virt. eigenvalues --    2.05924   2.06511   2.07134   2.07538   2.07759
 Alpha virt. eigenvalues --    2.08803   2.09357   2.09618   2.10167   2.10930
 Alpha virt. eigenvalues --    2.11087   2.11723   2.11961   2.12776   2.13152
 Alpha virt. eigenvalues --    2.13535   2.13801   2.14018   2.14644   2.15041
 Alpha virt. eigenvalues --    2.15436   2.15646   2.15976   2.16497   2.17232
 Alpha virt. eigenvalues --    2.17320   2.17510   2.18436   2.18780   2.19007
 Alpha virt. eigenvalues --    2.19698   2.20507   2.21214   2.21289   2.22151
 Alpha virt. eigenvalues --    2.22321   2.23145   2.23714   2.24640   2.24816
 Alpha virt. eigenvalues --    2.25518   2.26089   2.26585   2.26935   2.27490
 Alpha virt. eigenvalues --    2.28101   2.29080   2.29578   2.29928   2.30738
 Alpha virt. eigenvalues --    2.31914   2.32616   2.33270   2.33678   2.34306
 Alpha virt. eigenvalues --    2.35312   2.35642   2.36317   2.36662   2.36863
 Alpha virt. eigenvalues --    2.37917   2.38532   2.38990   2.39901   2.40736
 Alpha virt. eigenvalues --    2.41057   2.42273   2.43082   2.43399   2.44060
 Alpha virt. eigenvalues --    2.44491   2.44766   2.47630   2.48569   2.48974
 Alpha virt. eigenvalues --    2.50006   2.50852   2.51516   2.52631   2.53409
 Alpha virt. eigenvalues --    2.54699   2.57103   2.58426   2.60208   2.63721
 Alpha virt. eigenvalues --    2.65208   2.65796   2.66417   2.67065   2.67289
 Alpha virt. eigenvalues --    2.68012   2.68493   2.68768   2.69013   2.69907
 Alpha virt. eigenvalues --    2.70356   2.70906   2.71274   2.71802   2.72101
 Alpha virt. eigenvalues --    2.73399   2.73683   2.74291   2.75292   2.75929
 Alpha virt. eigenvalues --    2.76696   2.77232   2.77542   2.78473   2.78695
 Alpha virt. eigenvalues --    2.79573   2.80109   2.80220   2.82417   2.83321
 Alpha virt. eigenvalues --    2.83954   2.85766   2.86353   2.86630   2.86864
 Alpha virt. eigenvalues --    2.87828   2.88492   2.88643   2.89834   2.91108
 Alpha virt. eigenvalues --    2.91536   2.92291   2.92446   2.93151   2.93644
 Alpha virt. eigenvalues --    2.94128   2.94270   2.94707   2.95638   2.96311
 Alpha virt. eigenvalues --    2.96511   2.97023   2.98278   2.98982   2.99384
 Alpha virt. eigenvalues --    3.00068   3.00904   3.01771   3.01968   3.02528
 Alpha virt. eigenvalues --    3.02605   3.04934   3.07169   3.08161   3.08886
 Alpha virt. eigenvalues --    3.09193   3.17534   3.21282   3.24814   3.24901
 Alpha virt. eigenvalues --    3.27008   3.27288   3.29527   3.30985   3.32611
 Alpha virt. eigenvalues --    3.34783   3.37019   3.37353   3.39015   3.40176
 Alpha virt. eigenvalues --    3.43234   3.45119   3.46345   3.49035   3.50101
 Alpha virt. eigenvalues --    3.50392   3.51027   3.52627   3.55210   3.56627
 Alpha virt. eigenvalues --    3.57390   3.58831   3.59159   3.59765   3.60892
 Alpha virt. eigenvalues --    3.62256   3.64225   3.64827   3.65584   3.68365
 Alpha virt. eigenvalues --    8.61806   9.67910
          Condensed to atoms (all electrons):
 Mulliken charges:
               1
     1  Li   0.559991
     2  N   -0.493452
     3  C    0.060958
     4  Cl   0.072076
     5  N   -0.410586
     6  C   -0.025836
     7  Cl  -0.037910
     8  N   -0.375662
     9  C   -0.001511
    10  Cl  -0.042254
    11  Zn   1.012704
    12  N   -0.516546
    13  C    0.068458
    14  Cl   0.052599
    15  N   -0.565538
    16  C    0.020652
    17  Cl  -0.026686
    18  N   -0.541160
    19  C    0.037076
    20  Cl  -0.004886
    21  C    0.221374
    22  H    0.145862
    23  C    0.153416
    24  H    0.103777
    25  C    0.164262
    26  H    0.112550
    27  C    0.242174
    28  C   -0.185939
    29  O   -0.739552
    30  C   -0.322044
    31  H    0.138910
    32  H    0.166588
    33  H    0.116472
    34  H    0.096759
    35  H    0.087691
    36  H    0.035747
    37  N   -0.381568
    38  C   -0.070176
    39  C   -0.345766
    40  H    0.173843
    41  H    0.142537
    42  H    0.144362
    43  H    0.135076
    44  H    0.124219
    45  C   -0.066262
    46  C   -0.350449
    47  H    0.143890
    48  H    0.132796
    49  H    0.124881
    50  H    0.149285
    51  H    0.170669
    52  C   -0.087553
    53  C   -0.350110
    54  H    0.177589
    55  H    0.129102
    56  H    0.168607
    57  H    0.154024
    58  H    0.127492
    59  C   -0.077982
    60  C   -0.343361
    61  H    0.180598
    62  H    0.157829
    63  H    0.161149
    64  H    0.112928
    65  H    0.131821
    66  Br  -0.246834
    67  C    0.659154
    68  O   -0.341831
    69  O   -0.320494
 Sum of Mulliken charges =   0.00000
 Mulliken charges with hydrogens summed into heavy atoms:
               1
     1  Li   0.559991
     2  N   -0.493452
     3  C    0.060958
     4  Cl   0.072076
     5  N   -0.410586
     6  C   -0.025836
     7  Cl  -0.037910
     8  N   -0.375662
     9  C   -0.001511
    10  Cl  -0.042254
    11  Zn   1.012704
    12  N   -0.516546
    13  C    0.068458
    14  Cl   0.052599
    15  N   -0.565538
    16  C    0.020652
    17  Cl  -0.026686
    18  N   -0.541160
    19  C    0.037076
    20  Cl  -0.004886
    21  C    0.367237
    23  C    0.257193
    25  C    0.276812
    27  C    0.277921
    28  C    0.119559
    29  O   -0.739552
    30  C   -0.021122
    37  N   -0.381568
    38  C    0.246204
    39  C    0.057892
    45  C    0.210423
    46  C    0.094386
    52  C    0.219138
    53  C    0.100013
    59  C    0.260446
    60  C    0.062536
    66  Br  -0.246834
    67  C    0.659154
    68  O   -0.341831
    69  O   -0.320494
 Electronic spatial extent (au):  <R**2>=          31230.8815
 Charge=              0.0000 electrons
 Dipole moment (field-independent basis, Debye):
    X=              7.0762    Y=              0.1284    Z=             -6.5698  Tot=              9.6567
 Quadrupole moment (field-independent basis, Debye-Ang):
   XX=           -323.5590   YY=           -153.2478   ZZ=           -284.1219
   XY=             51.4751   XZ=             13.0756   YZ=             55.7774
 Traceless Quadrupole moment (field-independent basis, Debye-Ang):
   XX=            -69.9161   YY=            100.3951   ZZ=            -30.4790
   XY=             51.4751   XZ=             13.0756   YZ=             55.7774
 Octapole moment (field-independent basis, Debye-Ang**2):
  XXX=           -359.2522  YYY=           -716.3461  ZZZ=           -257.2356  XYY=             72.3512
  XXY=           -315.0399  XXZ=             12.0177  XZZ=           -214.4837  YZZ=           -551.1473
  YYZ=           -232.1056  XYZ=              7.3194
 Hexadecapole moment (field-independent basis, Debye-Ang**3):
 XXXX=         -13402.9543 YYYY=         -13098.9627 ZZZZ=          -7630.2036 XXXY=          -2733.0665
 XXXZ=           -470.1660 YYYX=          -1566.8051 YYYZ=            624.4833 ZZZX=           -599.9027
 ZZZY=           -332.0976 XXYY=          -4746.5684 XXZZ=          -3622.7345 YYZZ=          -3358.3258
 XXYZ=           -267.0873 YYXZ=             74.2068 ZZXY=          -1035.0041
 N-N= 7.427042333769D+03 E-N=-3.114722129617D+04  KE= 6.866515008463D+03
  Exact polarizability: 366.223  18.087 376.409  -4.378  25.257 331.581
 Approx polarizability: 440.747  -2.680 423.147 -15.360  23.428 423.679
   1 Symmetry operations used in ECPInt.
 ECPInt:  NShTT=   34716 NPrTT=  206045 LenC2=   26209 LenP2D=   79734.
 LDataN:  DoStor=T MaxTD1= 7 Len=  274
 Calling FoFJK, ICntrl=    100127 FMM=F ISym2X=0 I1Cent= 0 IOpClX= 0 NMat=1 NMatS=1 NMatT=0.
 -------------------------------------------------------------------
 Center     Atomic                   Forces (Hartrees/Bohr)
 Number     Number              X              Y              Z
 -------------------------------------------------------------------
      1        3          -0.000000000   -0.000000000   -0.000000000
      2        7          -0.000000000   -0.000000000   -0.000000000
      3        6           0.000000125   -0.000000183   -0.000000189
      4       17           0.000000084    0.000000151    0.000000057
      5        7          -0.000000000   -0.000000000   -0.000000000
      6        6          -0.000000158    0.000000155    0.000000026
      7       17          -0.000000045   -0.000000026    0.000000013
      8        7          -0.000000000   -0.000000000   -0.000000000
      9        6           0.000000514   -0.000000195   -0.000000514
     10       17           0.000000010   -0.000000012    0.000000068
     11       30          -0.000000066    0.000000010   -0.000000050
     12        7          -0.000000250    0.000000182    0.000000370
     13        6          -0.000000152   -0.000000128   -0.000000070
     14       17           0.000000073    0.000000024   -0.000000025
     15        7           0.000000424   -0.000000291   -0.000000512
     16        6          -0.000000635    0.000000350    0.000000714
     17       17           0.000000076   -0.000000065   -0.000000233
     18        7          -0.000000303   -0.000000213   -0.000000027
     19        6           0.000000125    0.000000285   -0.000000118
     20       17          -0.000000019   -0.000000033    0.000000017
     21        6           0.000000985    0.000000430   -0.000000362
     22        1          -0.000000424   -0.000000193    0.000000124
     23        6          -0.000000124    0.000000165    0.000000494
     24        1          -0.000000010    0.000000013   -0.000000126
     25        6           0.000000495    0.000000024    0.000000155
     26        1          -0.000000142    0.000000056   -0.000000020
     27        6           0.000000395    0.000000440   -0.000000204
     28        6           0.000000157    0.000000068    0.000000465
     29        8          -0.000000198   -0.000000310   -0.000000013
     30        6          -0.000000057   -0.000000460   -0.000000227
     31        1          -0.000000162    0.000000072   -0.000000116
     32        1           0.000000011    0.000000032   -0.000000149
     33        1          -0.000000144    0.000000114    0.000000212
     34        1           0.000000082    0.000000052   -0.000000091
     35        1           0.000000079    0.000000181    0.000000098
     36        1          -0.000000081   -0.000000124    0.000000174
     37        7           0.000000065   -0.000000164    0.000000311
     38        6          -0.000000318    0.000000013   -0.000000103
     39        6          -0.000000472   -0.000000319    0.000000108
     40        1           0.000000165    0.000000188   -0.000000154
     41        1           0.000000111   -0.000000057    0.000000021
     42        1           0.000000068    0.000000069    0.000000037
     43        1           0.000000381   -0.000000123    0.000000087
     44        1           0.000000027    0.000000279   -0.000000153
     45        6           0.000000192   -0.000000023    0.000000274
     46        6          -0.000000226    0.000000250   -0.000000661
     47        1          -0.000000069    0.000000024   -0.000000022
     48        1          -0.000000055    0.000000029   -0.000000015
     49        1          -0.000000128   -0.000000303    0.000000190
     50        1           0.000000151   -0.000000103    0.000000087
     51        1           0.000000203    0.000000141    0.000000129
     52        6           0.000000018   -0.000000623   -0.000000196
     53        6           0.000000024    0.000000270   -0.000000493
     54        1          -0.000000078    0.000000210    0.000000324
     55        1          -0.000000105    0.000000288   -0.000000048
     56        1          -0.000000006   -0.000000004   -0.000000030
     57        1           0.000000113   -0.000000230    0.000000122
     58        1          -0.000000008    0.000000092    0.000000300
     59        6          -0.000000371    0.000000060   -0.000000463
     60        6           0.000000302   -0.000000406    0.000000169
     61        1           0.000000070    0.000000054    0.000000249
     62        1           0.000000032    0.000000017    0.000000011
     63        1          -0.000000107    0.000000331    0.000000017
     64        1           0.000000030    0.000000042   -0.000000047
     65        1          -0.000000013   -0.000000003   -0.000000052
     66       35          -0.000000069   -0.000000097   -0.000000078
     67        6          -0.000000141    0.000001156    0.000001412
     68        8           0.000000100   -0.000000593   -0.000000811
     69        8           0.000000043   -0.000000545   -0.000000609
 -------------------------------------------------------------------
 Cartesian Forces:  Max     0.000001412 RMS     0.000000272

 GradGradGradGradGradGradGradGradGradGradGradGradGradGradGradGradGradGrad
 Berny optimization.
 Search for a local minimum.
 Step number   1 out of a maximum of  217
 All quantities printed in internal units (Hartrees-Bohrs-Radians)
 Second derivative matrix not updated -- analytic derivatives used.
 ITU=  0
     Eigenvalues ---    0.00001   0.00002   0.00008   0.00010   0.00016
     Eigenvalues ---    0.00021   0.00032   0.00036   0.00041   0.00051
     Eigenvalues ---    0.00061   0.00072   0.00092   0.00099   0.00115
     Eigenvalues ---    0.00117   0.00129   0.00137   0.00154   0.00173
     Eigenvalues ---    0.00210   0.00241   0.00258   0.00285   0.00325
     Eigenvalues ---    0.00363   0.00384   0.00443   0.00447   0.00456
     Eigenvalues ---    0.00521   0.00576   0.00583   0.00627   0.00651
     Eigenvalues ---    0.00735   0.00958   0.01122   0.01195   0.01265
     Eigenvalues ---    0.01313   0.01354   0.01404   0.01433   0.01468
     Eigenvalues ---    0.01555   0.02031   0.02620   0.02666   0.02734
     Eigenvalues ---    0.02821   0.02908   0.02969   0.02991   0.03090
     Eigenvalues ---    0.03316   0.03471   0.03552   0.03641   0.03703
     Eigenvalues ---    0.03743   0.03994   0.04004   0.04063   0.04469
     Eigenvalues ---    0.04620   0.05451   0.05465   0.05668   0.05725
     Eigenvalues ---    0.05784   0.06116   0.06311   0.06614   0.06688
     Eigenvalues ---    0.06716   0.06826   0.06899   0.06933   0.07120
     Eigenvalues ---    0.07144   0.07388   0.07399   0.07703   0.07804
     Eigenvalues ---    0.07847   0.07965   0.08166   0.08649   0.09114
     Eigenvalues ---    0.09176   0.09930   0.09983   0.10161   0.10439
     Eigenvalues ---    0.10535   0.11222   0.11350   0.11445   0.11616
     Eigenvalues ---    0.11688   0.11824   0.12199   0.12464   0.13154
     Eigenvalues ---    0.14091   0.14151   0.14399   0.14547   0.15252
     Eigenvalues ---    0.15470   0.15833   0.16438   0.16621   0.16897
     Eigenvalues ---    0.16958   0.17178   0.17313   0.18552   0.19773
     Eigenvalues ---    0.20700   0.20761   0.20787   0.21045   0.21124
     Eigenvalues ---    0.21149   0.21988   0.22441   0.23034   0.23751
     Eigenvalues ---    0.24264   0.24564   0.26552   0.27555   0.27802
     Eigenvalues ---    0.28558   0.33047   0.34000   0.34542   0.34842
     Eigenvalues ---    0.35163   0.35233   0.37180   0.44386   0.47840
     Eigenvalues ---    0.48524   0.48640   0.51248   0.53838   0.55242
     Eigenvalues ---    0.56156   0.62188   0.64829   0.65312   0.66060
     Eigenvalues ---    0.66296   0.66554   0.67543   0.68546   0.74365
     Eigenvalues ---    0.77998   0.79737   0.80819   0.81494   0.81598
     Eigenvalues ---    0.82272   0.84541   0.84867   0.85129   0.85603
     Eigenvalues ---    0.85879   0.86068   0.86332   0.87522   0.88097
     Eigenvalues ---    0.89988   0.90131   0.91447   0.93086   0.93805
     Eigenvalues ---    0.94565   0.94788   0.95617   0.96622   0.97536
     Eigenvalues ---    0.98779   0.99648   1.11012   1.11823   1.14842
     Eigenvalues ---    1.15981   1.17269   1.18643   1.21711   2.97741
 RFO step:  Lambda= 0.00000000D+00 EMin= 1.31402011D-05
 Linear search not attempted -- first point.
 Variable       Old X    -DE/DX   Delta X   Delta X   Delta X     New X
                                 (Linear)    (Quad)   (Total)
    X1       -1.23999  -0.00000   0.00000   0.00000   0.00000  -1.23999
    Y1       -9.52118  -0.00000   0.00000   0.00000   0.00000  -9.52118
    Z1       -6.53361  -0.00000   0.00000   0.00000   0.00000  -6.53361
    X2       -0.53440  -0.00000   0.00000   0.00000   0.00000  -0.53440
    Y2       -6.94584  -0.00000   0.00000   0.00000   0.00000  -6.94584
    Z2       -4.14735  -0.00000   0.00000   0.00000   0.00000  -4.14735
    X3       -2.73702   0.00000   0.00000  -0.00001  -0.00001  -2.73703
    Y3       -7.03872  -0.00000   0.00000   0.00001   0.00001  -7.03871
    Z3       -2.80777  -0.00000   0.00000  -0.00001  -0.00001  -2.80778
    X4       -4.84799   0.00000   0.00000  -0.00001  -0.00001  -4.84800
    Y4       -9.48738   0.00000   0.00000   0.00001   0.00001  -9.48736
    Z4       -3.44387   0.00000   0.00000  -0.00002  -0.00002  -3.44389
    X5        4.39971  -0.00000   0.00000   0.00000   0.00000   4.39971
    Y5        4.91149  -0.00000   0.00000   0.00000   0.00000   4.91149
    Z5       -4.57207  -0.00000   0.00000   0.00000   0.00000  -4.57207
    X6        6.31599  -0.00000   0.00000  -0.00000  -0.00000   6.31599
    Y6        3.31414   0.00000   0.00000  -0.00000  -0.00000   3.31414
    Z6       -3.98311   0.00000   0.00000  -0.00000  -0.00000  -3.98311
    X7        9.42354  -0.00000   0.00000  -0.00000  -0.00000   9.42354
    Y7        3.93446  -0.00000   0.00000  -0.00000  -0.00000   3.93446
    Z7       -4.80213   0.00000   0.00000  -0.00001  -0.00001  -4.80213
    X8       -6.28803  -0.00000   0.00000   0.00000   0.00000  -6.28803
    Y8        3.92134  -0.00000   0.00000   0.00000   0.00000   3.92134
    Z8        2.01394  -0.00000   0.00000   0.00000   0.00000   2.01394
    X9       -6.61805   0.00000   0.00000  -0.00000  -0.00000  -6.61805
    Y9        3.95711  -0.00000   0.00000  -0.00000  -0.00000   3.95711
    Z9       -0.51805  -0.00000   0.00000  -0.00000  -0.00000  -0.51805
   X10       -9.21622   0.00000   0.00000  -0.00000  -0.00000  -9.21622
   Y10        5.34628  -0.00000   0.00000  -0.00001  -0.00001   5.34627
   Z10       -1.93976   0.00000   0.00000   0.00000   0.00000  -1.93976
   X11        0.26912  -0.00000   0.00000  -0.00000  -0.00000   0.26912
   Y11       -0.14620   0.00000   0.00000  -0.00000  -0.00000  -0.14620
   Z11        0.08601  -0.00000   0.00000  -0.00000  -0.00000   0.08601
   X12       -0.73619  -0.00000   0.00000  -0.00000  -0.00000  -0.73619
   Y12       -3.64731   0.00000   0.00000   0.00000   0.00000  -3.64731
   Z12       -1.50603   0.00000   0.00000  -0.00000  -0.00000  -1.50603
   X13       -2.88569  -0.00000   0.00000  -0.00001  -0.00001  -2.88570
   Y13       -5.03823  -0.00000   0.00000   0.00001   0.00001  -5.03822
   Z13       -1.19212  -0.00000   0.00000  -0.00001  -0.00001  -1.19213
   X14       -5.25386   0.00000   0.00000  -0.00002  -0.00002  -5.25388
   Y14       -4.27257   0.00000   0.00000   0.00002   0.00002  -4.27256
   Z14        0.86419  -0.00000   0.00000  -0.00003  -0.00003   0.86416
   X15       -2.99614   0.00000   0.00000   0.00000   0.00000  -2.99613
   Y15        1.95297  -0.00000   0.00000   0.00000   0.00000   1.95297
   Z15        0.11981  -0.00000   0.00000  -0.00000  -0.00000   0.11981
   X16       -4.63827  -0.00000   0.00000   0.00000   0.00000  -4.63827
   Y16        2.75709   0.00000   0.00000  -0.00000  -0.00000   2.75709
   Z16       -1.69330   0.00000   0.00000   0.00000   0.00000  -1.69330
   X17       -4.17943   0.00000   0.00000   0.00000   0.00000  -4.17942
   Y17        2.17476  -0.00000   0.00000  -0.00000  -0.00000   2.17476
   Z17       -4.87567  -0.00000   0.00000   0.00000   0.00000  -4.87567
   X18        2.85250  -0.00000   0.00000  -0.00000  -0.00000   2.85250
   Y18        1.55823  -0.00000   0.00000  -0.00000  -0.00000   1.55823
   Z18       -2.40465  -0.00000   0.00000  -0.00000  -0.00000  -2.40465
   X19        5.39875   0.00000   0.00000  -0.00000  -0.00000   5.39875
   Y19        1.27417   0.00000   0.00000  -0.00000  -0.00000   1.27416
   Z19       -2.66541  -0.00000   0.00000  -0.00001  -0.00001  -2.66542
   X20        6.99704  -0.00000   0.00000  -0.00000  -0.00000   6.99704
   Y20       -1.33324  -0.00000   0.00000  -0.00001  -0.00001  -1.33325
   Z20       -1.54081   0.00000   0.00000  -0.00001  -0.00001  -1.54082
   X21        0.59308   0.00000   0.00000   0.00000   0.00000   0.59308
   Y21       -4.85330   0.00000   0.00000  -0.00000  -0.00000  -4.85330
   Z21       -3.27803  -0.00000   0.00000   0.00000   0.00000  -3.27803
   X22        2.40956  -0.00000   0.00000   0.00001   0.00001   2.40956
   Y22       -4.19107  -0.00000   0.00000  -0.00001  -0.00001  -4.19108
   Z22       -3.93550   0.00000   0.00000   0.00001   0.00001  -3.93549
   X23       -4.11537  -0.00000   0.00000   0.00000   0.00000  -4.11537
   Y23        2.70633   0.00000   0.00000   0.00000   0.00000   2.70634
   Z23        2.30001   0.00000   0.00000   0.00000   0.00000   2.30001
   X24       -3.28587  -0.00000   0.00000   0.00000   0.00000  -3.28587
   Y24        2.28117   0.00000   0.00000   0.00001   0.00001   2.28118
   Z24        4.11912  -0.00000   0.00000   0.00000   0.00000   4.11912
   X25        2.37905   0.00000   0.00000   0.00000   0.00000   2.37905
   Y25        3.76484   0.00000   0.00000   0.00000   0.00000   3.76484
   Z25       -3.60034   0.00000   0.00000   0.00000   0.00000  -3.60033
   X26        0.48007  -0.00000   0.00000   0.00000   0.00000   0.48007
   Y26        4.50113   0.00000   0.00000   0.00000   0.00000   4.50113
   Z26       -3.76193  -0.00000   0.00000   0.00001   0.00001  -3.76192
   X27        3.43145   0.00000   0.00000   0.00001   0.00001   3.43146
   Y27        1.22913   0.00000   0.00000   0.00000   0.00000   1.22913
   Z27        4.46850  -0.00000   0.00000  -0.00000  -0.00000   4.46850
   X28        2.02557   0.00000   0.00000   0.00001   0.00001   2.02558
   Y28        2.92743   0.00000   0.00000  -0.00000  -0.00000   2.92743
   Z28        6.34438   0.00000   0.00000  -0.00000  -0.00000   6.34438
   X29        1.60965  -0.00000   0.00000   0.00000   0.00000   1.60965
   Y29       -0.35566  -0.00000   0.00000  -0.00000  -0.00000  -0.35566
   Z29        3.46325  -0.00000   0.00000  -0.00000  -0.00000   3.46325
   X30        5.55630  -0.00000   0.00000   0.00001   0.00001   5.55630
   Y30       -0.26185  -0.00000   0.00000   0.00000   0.00000  -0.26185
   Z30        5.72560  -0.00000   0.00000  -0.00001  -0.00001   5.72559
   X31        0.45838  -0.00000   0.00000   0.00001   0.00001   0.45839
   Y31        3.89504   0.00000   0.00000  -0.00000  -0.00000   3.89504
   Z31        5.43530  -0.00000   0.00000   0.00000   0.00000   5.43530
   X32        1.35144   0.00000   0.00000   0.00001   0.00001   1.35145
   Y32        1.85391   0.00000   0.00000  -0.00000  -0.00000   1.85391
   Z32        7.96342  -0.00000   0.00000  -0.00000  -0.00000   7.96342
   X33        6.43415  -0.00000   0.00000   0.00001   0.00001   6.43416
   Y33       -1.49596   0.00000   0.00000   0.00000   0.00000  -1.49596
   Z33        4.32442   0.00000   0.00000  -0.00001  -0.00001   4.32441
   X34        4.78807   0.00000   0.00000   0.00001   0.00001   4.78808
   Y34       -1.43456   0.00000   0.00000  -0.00000  -0.00000  -1.43456
   Z34        7.24443  -0.00000   0.00000  -0.00001  -0.00001   7.24442
   X35        7.00569   0.00000   0.00000   0.00001   0.00001   7.00570
   Y35        0.97752   0.00000   0.00000   0.00000   0.00000   0.97752
   Z35        6.52242   0.00000   0.00000  -0.00001  -0.00001   6.52241
   X36        4.29905  -0.00000   0.00000   0.00000   0.00000   4.29905
   Y36        2.45955  -0.00000   0.00000   0.00000   0.00000   2.45955
   Z36        3.01389   0.00000   0.00000  -0.00001  -0.00001   3.01388
   X37        4.37351   0.00000   0.00000   0.00001   0.00001   4.37352
   Y37       10.27496  -0.00000   0.00000   0.00000   0.00000  10.27496
   Z37        0.69029   0.00000   0.00000  -0.00000  -0.00000   0.69029
   X38        3.76978  -0.00000   0.00000   0.00001   0.00001   3.76979
   Y38       11.56795   0.00000   0.00000   0.00000   0.00000  11.56796
   Z38        3.19171  -0.00000   0.00000  -0.00000  -0.00000   3.19171
   X39        5.74397  -0.00000   0.00000   0.00001   0.00001   5.74399
   Y39       13.34813  -0.00000   0.00000   0.00000   0.00000  13.34813
   Z39        4.28844   0.00000   0.00000  -0.00000  -0.00000   4.28843
   X40        3.36151   0.00000   0.00000   0.00001   0.00001   3.36152
   Y40       10.05023   0.00000   0.00000   0.00000   0.00000  10.05024
   Z40        4.52499  -0.00000   0.00000  -0.00000  -0.00000   4.52499
   X41        2.02587   0.00000   0.00000   0.00001   0.00001   2.02588
   Y41       12.62310  -0.00000   0.00000   0.00000   0.00000  12.62310
   Z41        2.87351   0.00000   0.00000  -0.00000  -0.00000   2.87351
   X42        5.06387   0.00000   0.00000   0.00002   0.00002   5.06389
   Y42       13.91122   0.00000   0.00000   0.00000   0.00000  13.91123
   Z42        6.15544   0.00000   0.00000  -0.00000  -0.00000   6.15544
   X43        7.58785   0.00000   0.00000   0.00002   0.00002   7.58786
   Y43       12.47125  -0.00000   0.00000  -0.00000  -0.00000  12.47125
   Z43        4.54835   0.00000   0.00000  -0.00001  -0.00001   4.54834
   X44        5.97328   0.00000   0.00000   0.00001   0.00001   5.97329
   Y44       15.07096   0.00000   0.00000   0.00000   0.00000  15.07096
   Z44        3.17846  -0.00000   0.00000  -0.00001  -0.00001   3.17845
   X45        5.82338   0.00000   0.00000   0.00001   0.00001   5.82339
   Y45       12.04368  -0.00000   0.00000  -0.00000  -0.00000  12.04368
   Z45       -1.02887   0.00000   0.00000  -0.00000  -0.00000  -1.02887
   X46        6.71946  -0.00000   0.00000   0.00001   0.00001   6.71947
   Y46       10.91852   0.00000   0.00000  -0.00000  -0.00000  10.91852
   Z46       -3.51771  -0.00000   0.00000  -0.00001  -0.00001  -3.51771
   X47        7.44370  -0.00000   0.00000   0.00001   0.00001   7.44372
   Y47       12.71804   0.00000   0.00000  -0.00000  -0.00000  12.71804
   Z47        0.04103  -0.00000   0.00000  -0.00001  -0.00001   0.04102
   X48        4.57200  -0.00000   0.00000   0.00001   0.00001   4.57201
   Y48       13.65653   0.00000   0.00000  -0.00000  -0.00000  13.65653
   Z48       -1.34370  -0.00000   0.00000  -0.00000  -0.00000  -1.34370
   X49        7.47790  -0.00000   0.00000   0.00001   0.00001   7.47791
   Y49       12.46879  -0.00000   0.00000  -0.00000  -0.00000  12.46879
   Z49       -4.65238   0.00000   0.00000  -0.00001  -0.00001  -4.65238
   X50        8.23337   0.00000   0.00000   0.00001   0.00001   8.23338
   Y50        9.54480  -0.00000   0.00000  -0.00000  -0.00000   9.54480
   Z50       -3.25104   0.00000   0.00000  -0.00001  -0.00001  -3.25105
   X51        5.24478   0.00000   0.00000   0.00001   0.00001   5.24478
   Y51        9.98326   0.00000   0.00000  -0.00000  -0.00000   9.98326
   Z51       -4.60900   0.00000   0.00000  -0.00000  -0.00000  -4.60900
   X52        1.86643   0.00000   0.00000   0.00001   0.00001   1.86644
   Y52        9.64707  -0.00000   0.00000   0.00000   0.00000   9.64707
   Z52       -0.60229  -0.00000   0.00000  -0.00000  -0.00000  -0.60229
   X53        0.02247   0.00000   0.00000   0.00001   0.00001   0.02247
   Y53        8.06955   0.00000   0.00000   0.00000   0.00000   8.06955
   Z53        0.92899  -0.00000   0.00000   0.00000   0.00000   0.92899
   X54        2.35772  -0.00000   0.00000   0.00001   0.00001   2.35772
   Y54        8.65614   0.00000   0.00000   0.00000   0.00000   8.65614
   Z54       -2.33703   0.00000   0.00000  -0.00000  -0.00000  -2.33703
   X55        1.03521  -0.00000   0.00000   0.00001   0.00001   1.03521
   Y55       11.47427   0.00000   0.00000   0.00000   0.00000  11.47427
   Z55       -1.08518  -0.00000   0.00000  -0.00000  -0.00000  -1.08518
   X56       -1.69470  -0.00000   0.00000   0.00001   0.00001  -1.69469
   Y56        7.84453  -0.00000   0.00000   0.00000   0.00000   7.84453
   Z56       -0.19663  -0.00000   0.00000   0.00000   0.00000  -0.19663
   X57        0.71814   0.00000   0.00000   0.00001   0.00001   0.71815
   Y57        6.16670  -0.00000   0.00000   0.00000   0.00000   6.16671
   Z57        1.29268   0.00000   0.00000   0.00000   0.00000   1.29268
   X58       -0.53078  -0.00000   0.00000   0.00001   0.00001  -0.53077
   Y58        8.94442   0.00000   0.00000   0.00000   0.00000   8.94442
   Z58        2.71168   0.00000   0.00000   0.00000   0.00000   2.71168
   X59        5.79500  -0.00000   0.00000   0.00001   0.00001   5.79501
   Y59        7.80889   0.00000   0.00000   0.00000   0.00000   7.80889
   Z59        1.08505  -0.00000   0.00000  -0.00000  -0.00000   1.08504
   X60        8.42085   0.00000   0.00000   0.00001   0.00001   8.42086
   Y60        8.00776  -0.00000   0.00000  -0.00000  -0.00000   8.00776
   Z60        2.21614   0.00000   0.00000  -0.00001  -0.00001   2.21614
   X61        5.84287   0.00000   0.00000   0.00001   0.00001   5.84288
   Y61        6.89776   0.00000   0.00000  -0.00000  -0.00000   6.89776
   Z61       -0.75914   0.00000   0.00000  -0.00000  -0.00000  -0.75914
   X62        4.61747   0.00000   0.00000   0.00001   0.00001   4.61748
   Y62        6.67310   0.00000   0.00000   0.00000   0.00000   6.67311
   Z62        2.32922   0.00000   0.00000  -0.00000  -0.00000   2.32922
   X63        9.25050  -0.00000   0.00000   0.00001   0.00001   9.25051
   Y63        6.12010   0.00000   0.00000   0.00000   0.00000   6.12010
   Z63        2.11562   0.00000   0.00000  -0.00001  -0.00001   2.11562
   X64        9.67407   0.00000   0.00000   0.00001   0.00001   9.67408
   Y64        9.27782   0.00000   0.00000  -0.00000  -0.00000   9.27782
   Z64        1.17884  -0.00000   0.00000  -0.00001  -0.00001   1.17884
   X65        8.38072  -0.00000   0.00000   0.00001   0.00001   8.38073
   Y65        8.53882  -0.00000   0.00000  -0.00000  -0.00000   8.53882
   Z65        4.20664  -0.00000   0.00000  -0.00001  -0.00001   4.20664
   X66        4.13794  -0.00000   0.00000   0.00001   0.00001   4.13795
   Y66        5.69454  -0.00000   0.00000  -0.00000  -0.00000   5.69454
   Z66        7.78349  -0.00000   0.00000  -0.00000  -0.00000   7.78349
   X67       -0.01515  -0.00000   0.00000  -0.00000  -0.00000  -0.01515
   Y67       -4.08858   0.00000   0.00000   0.00001   0.00001  -4.08857
   Z67        6.20547   0.00000   0.00000   0.00000   0.00000   6.20547
   X68       -0.04999   0.00000   0.00000   0.00003   0.00003  -0.04996
   Y68       -2.91138  -0.00000   0.00000   0.00000   0.00000  -2.91137
   Z68        8.07032  -0.00000   0.00000   0.00001   0.00001   8.07033
   X69       -0.05433   0.00000   0.00000  -0.00004  -0.00004  -0.05436
   Y69       -5.45294  -0.00000   0.00000   0.00002   0.00002  -5.45292
   Z69        4.47820  -0.00000   0.00000  -0.00000  -0.00000   4.47819
         Item               Value     Threshold  Converged?
 Maximum Force            0.000001     0.000015     YES
 RMS     Force            0.000000     0.000010     YES
 Maximum Displacement     0.000038     0.000060     YES
 RMS     Displacement     0.000008     0.000040     YES
 Predicted change in Energy=-8.556883D-12
 Optimization completed.
    -- Stationary point found.
 GradGradGradGradGradGradGradGradGradGradGradGradGradGradGradGradGradGrad

 Symmetry turned off by external request.
 Stoichiometry    C21H29BrCl6LiN7O3Zn
 Framework group  C1[X(C21H29BrCl6LiN7O3Zn)]
 Deg. of freedom   201
 Full point group                 C1      NOp   1
                          Input orientation:                          
 ---------------------------------------------------------------------
 Center     Atomic      Atomic             Coordinates (Angstroms)
 Number     Number       Type             X           Y           Z
 ---------------------------------------------------------------------
      1          3           0       -0.656174   -5.038394   -3.457440
      2          7           0       -0.282792   -3.675582   -2.194684
      3          6           0       -1.448368   -3.724730   -1.485808
      4         17           0       -2.565447   -5.020503   -1.822416
      5          7           0        2.328228    2.599049   -2.419433
      6          6           0        3.342279    1.753767   -2.107771
      7         17           0        4.986723    2.082026   -2.541176
      8          7           0       -3.327483    2.075083    1.065729
      9          6           0       -3.502122    2.094014   -0.274138
     10         17           0       -4.877014    2.829127   -1.026475
     11         30           0        0.142413   -0.077367    0.045513
     12          7           0       -0.389574   -1.930075   -0.796955
     13          6           0       -1.527041   -2.666115   -0.630842
     14         17           0       -2.780222   -2.260948    0.457308
     15          7           0       -1.585488    1.033467    0.063403
     16          6           0       -2.454466    1.458989   -0.896058
     17         17           0       -2.211657    1.150834   -2.580096
     18          7           0        1.509478    0.824581   -1.272487
     19          6           0        2.856895    0.674260   -1.410476
     20         17           0        3.702675   -0.705521   -0.815360
     21          6           0        0.313842   -2.568256   -1.734660
     22          1           0        1.275082   -2.217820   -2.082576
     23          6           0       -2.177761    1.432130    1.217113
     24          1           0       -1.738808    1.207144    2.179742
     25          6           0        1.258938    1.992266   -1.905216
     26          1           0        0.254042    2.381893   -1.990727
     27          6           0        1.815846    0.650429    2.364629
     28          6           0        1.071886    1.549128    3.357301
     29          8           0        0.851790   -0.188208    1.832671
     30          6           0        2.940265   -0.138564    3.029858
     31          1           0        0.242564    2.061165    2.876238
     32          1           0        0.715150    0.981047    4.214062
     33          1           0        3.404807   -0.791629    2.288385
     34          1           0        2.533738   -0.759138    3.833586
     35          1           0        3.707254    0.517281    3.451517
     36          1           0        2.274961    1.301538    1.594881
     37          7           0        2.314362    5.437274    0.365287
     38          6           0        1.994882    6.121498    1.688981
     39          6           0        3.039580    7.063527    2.269343
     40          1           0        1.778832    5.318354    2.394524
     41          1           0        1.072043    6.679857    1.520596
     42          1           0        2.679686    7.361503    3.257319
     43          1           0        4.015316    6.599503    2.406882
     44          1           0        3.160924    7.975209    1.681966
     45          6           0        3.081601    6.373240   -0.544452
     46          6           0        3.555786    5.777831   -1.861490
     47          1           0        3.939039    6.730095    0.021711
     48          1           0        2.419400    7.226726   -0.711054
     49          1           0        3.957135    6.598199   -2.461932
     50          1           0        4.356914    5.050890   -1.720376
     51          1           0        2.775417    5.282916   -2.438976
     52          6           0        0.987674    5.105007   -0.318717
     53          6           0        0.011888    4.270222    0.491601
     54          1           0        1.247650    4.580633   -1.236703
     55          1           0        0.547807    6.071920   -0.574255
     56          1           0       -0.896796    4.151147   -0.104053
     57          1           0        0.380021    3.263279    0.684055
     58          1           0       -0.280879    4.733181    1.434957
     59          6           0        3.066582    4.132287    0.574182
     60          6           0        4.456123    4.237526    1.172731
     61          1           0        3.091915    3.650139   -0.401719
     62          1           0        2.443459    3.531255    1.232571
     63          1           0        4.895154    3.238615    1.119540
     64          1           0        5.119297    4.909610    0.623817
     65          1           0        4.434884    4.518547    2.226059
     66         35           0        2.189701    3.013423    4.118846
     67          6           0       -0.008015   -2.163586    3.283791
     68          8           0       -0.026455   -1.540634    4.270631
     69          8           0       -0.028748   -2.885573    2.369759
 ---------------------------------------------------------------------
 Rotational constants (GHZ):           0.0745246           0.0416210           0.0410397
    4 atoms frozen in the vibrational analysis.
 Diagonal vibrational polarizability:
      907.2826510     288.6767304     473.4771504
 Harmonic frequencies (cm**-1), IR intensities (KM/Mole), Raman scattering
 activities (A**4/AMU), depolarization ratios for plane and unpolarized
 incident light, reduced masses (AMU), force constants (mDyne/A),
 and normal coordinates:
                      1                      2                      3
                      A                      A                      A
 Frequencies --      7.4402                 9.8477                11.1643
 Red. masses --      6.7341                 7.4063                12.0970
 Frc consts  --      0.0002                 0.0004                 0.0009
 IR Inten    --      1.5867                 1.0462                 0.1973
  Atom  AN      X      Y      Z        X      Y      Z        X      Y      Z
     3   6     0.02  -0.02   0.03    -0.02   0.02  -0.02     0.05  -0.06   0.08
     4  17     0.04  -0.04   0.06    -0.03   0.03  -0.04     0.09  -0.11   0.15
     6   6     0.00   0.01   0.01    -0.01  -0.02  -0.04    -0.01  -0.02  -0.03
     7  17     0.01   0.02   0.04    -0.01  -0.03  -0.06    -0.01  -0.04  -0.06
     9   6     0.00   0.01   0.00    -0.01  -0.02   0.00     0.00  -0.02  -0.00
    10  17     0.01   0.02   0.00    -0.03  -0.05   0.00     0.01  -0.03  -0.02
    11  30     0.00   0.00  -0.00    -0.00   0.01  -0.01     0.01  -0.01   0.01
    12   7     0.01  -0.01   0.02    -0.01   0.01  -0.01     0.02  -0.02   0.02
    13   6     0.03  -0.03   0.04    -0.02   0.02  -0.03     0.07  -0.07   0.10
    14  17     0.06  -0.06   0.09    -0.04   0.04  -0.06     0.14  -0.13   0.20
    15   7    -0.01  -0.02  -0.00     0.01   0.02  -0.00     0.00  -0.02   0.02
    16   6    -0.01  -0.00  -0.00    -0.00  -0.00  -0.00     0.01  -0.03   0.01
    17  17    -0.01   0.00  -0.00    -0.01  -0.01   0.00     0.01  -0.05   0.02
    18   7    -0.00  -0.01  -0.02    -0.00  -0.02  -0.03    -0.00  -0.01  -0.01
    19   6     0.00   0.00   0.00    -0.01  -0.03  -0.05    -0.01  -0.02  -0.04
    20  17     0.00   0.00   0.01    -0.02  -0.05  -0.10    -0.02  -0.04  -0.07
    21   6    -0.00   0.01  -0.01     0.00  -0.01   0.01    -0.02   0.02  -0.03
    22   1    -0.02   0.03  -0.04     0.02  -0.02   0.03    -0.06   0.07  -0.10
    23   6    -0.01  -0.01  -0.00     0.01   0.02  -0.00    -0.00   0.00   0.01
    24   1    -0.01  -0.02  -0.00     0.03   0.04  -0.00    -0.00   0.02   0.02
    25   6    -0.00  -0.01  -0.02     0.00   0.00   0.00     0.00   0.01   0.01
    26   1    -0.00  -0.02  -0.03     0.00   0.02   0.03     0.00   0.02   0.04
    27   6    -0.01   0.08  -0.02     0.04   0.04  -0.06     0.04  -0.01  -0.02
    28   6    -0.03   0.07  -0.03     0.08   0.05  -0.04     0.05  -0.05   0.02
    29   8     0.01   0.04  -0.00     0.03   0.04  -0.02     0.05  -0.02  -0.01
    30   6     0.02   0.12  -0.02     0.07   0.05  -0.09     0.08   0.01  -0.07
    31   1    -0.05   0.04  -0.02     0.06   0.05  -0.02     0.03  -0.05   0.05
[...]
 69,0.00006107,-0.00000633,0.00000493,-0.00003503,0.00006965,-0.0001425
 2,0.00013140,-0.00000624,0.00002815,-0.00003301,0.00000148,-0.00005630
 ,0.00000405,-0.00002606,-0.00003756,0.00001594,0.00001792,0.00004999,-
 0.00003397,-0.00016212,-0.00012728,0.00017140,0.00003158,0.00003887,-0
 .00002862,0.00000806,-0.00001132,-0.00000968,0.00000832,0.00002704,-0.
 00002641,0.00001374,0.00002546,-0.00002508,-0.00002506,0.00000296,0.00
 003562,-0.00000839,-0.00000569,0.00003410,-0.00000462,-0.00000315,0.00
 008505,0.00002722,-0.00012220,-0.00003947,0.00001769,0.00002834,0.0000
 2466,0.00002194,0.00006380,-0.00001643,-0.00001396,0.00006512,-0.00004
 275,0.00001461,0.00000860,0.00018433,0.00005553,-0.00008218,-0.0000005
 0,-0.00008805,-0.00024090,0.00017444,0.00002298,0.00008976,-0.00001905
 ,-0.00001220,0.00007690,0.00007956,0.00011820,-0.00020490,0.00011990,-
 0.00012308,-0.00001504,0.00008820,0.00004987,0.00008065,-0.00006645,-0
 .00008717,-0.00012812,0.00000287,0.00103296,0.00179765,0.00024981,-0.0
 0635259,0.74900236,0.,0.,0.,0.,0.,0.,-0.00048668,-0.00109841,-0.000540
 21,0.00027715,0.00064174,0.00033696,0.,0.,0.,0.00035401,-0.00005932,-0
 .00007923,-0.00030740,-0.00013989,0.00007349,0.,0.,0.,0.00002903,-0.00
 000543,-0.00028535,0.00020928,-0.00012066,0.00001247,0.00024831,0.0074
 3884,-0.00380977,0.00049011,-0.00043008,0.00250096,-0.00081248,-0.0010
 4288,-0.00218026,0.00001567,0.00027816,0.00117795,0.00099317,-0.001389
 09,-0.00018976,-0.00075996,0.00036546,-0.00061335,0.00008898,-0.000190
 02,-0.00027126,-0.00063743,-0.00104237,0.00045579,0.00032013,0.0003948
 2,-0.00024625,0.00001985,-0.00030305,-0.00000652,0.00098437,-0.0007979
 0,-0.00114948,0.00005024,0.00016468,0.00001156,-0.00031653,0.00021052,
 0.00179076,-0.00006695,-0.00007234,0.00038051,-0.00010825,0.00055193,-
 0.00041294,0.00004320,0.00002983,0.00005377,0.00443303,0.00227176,0.00
 837821,-0.00139630,-0.00099793,0.00284041,-0.00583106,-0.01312826,-0.0
 1108928,-0.00076529,-0.00177565,0.00212286,0.00006420,0.00041654,-0.00
 022319,-0.00014646,-0.00199233,-0.00148861,0.00112259,0.00034318,-0.00
 082244,-0.00187175,0.00085678,-0.00093025,0.00006847,0.00035316,-0.001
 00370,-0.00159900,-0.00151319,-0.00129149,-0.00000718,-0.00006120,-0.0
 0019689,-0.00008144,0.00003588,0.00021991,0.00000447,-0.00000414,-0.00
 005543,0.00003945,-0.00009207,0.00010880,0.00000244,0.00001348,-0.0000
 2510,0.00000204,-0.00004850,-0.00001416,-0.00001363,-0.00000849,0.0000
 3502,0.00000306,0.00002887,-0.00000796,-0.00003908,-0.00004572,0.00005
 546,0.00000974,0.00000278,-0.00000513,-0.00001842,-0.00000415,-0.00000
 864,0.00001831,-0.00000131,-0.00000277,0.00000020,-0.00002136,-0.00001
 498,0.00002692,0.00003372,0.00003245,-0.00002724,0.00007685,-0.0000061
 4,0.00009797,0.00002652,0.00005564,-0.00005370,0.00002457,-0.00002970,
 0.00000204,0.00013127,0.00000278,-0.00000870,-0.00002304,-0.00001152,-
 0.00002520,0.00009981,-0.00002483,0.00005350,0.00011316,0.00020094,0.0
 0004175,-0.00013226,-0.00001599,-0.00001460,-0.00001780,0.00001503,0.0
 0001349,0.00003947,0.00002283,0.00004346,0.00015630,0.00006729,0.00003
 041,0.00005497,0.00019640,0.00000966,0.00000113,0.00007753,-0.00000161
 ,0.00001890,-0.00003510,-0.00006660,-0.00010612,-0.00003393,0.00014789
 ,-0.00023643,-0.00152227,0.00875667,0.88210937,1.36696955,0.,0.,0.,0.,
 0.,0.,0.00003288,0.00002666,-0.00001211,0.00002913,0.00002462,-0.00000
 614,0.,0.,0.,0.00005880,0.00000331,-0.00001926,-0.00002120,-0.00001203
 ,0.00001423,0.,0.,0.,0.00005666,-0.00006834,-0.00001962,0.00000080,0.0
 0000241,-0.00001982,-0.00104734,-0.00034219,-0.00081521,0.00016281,0.0
 0010825,-0.00001520,-0.00035185,0.00003042,0.00014508,0.00029904,-0.00
 005915,0.00005582,0.00034103,-0.00001530,0.00005280,-0.00011290,0.0000
 6840,-0.00011827,0.00003165,-0.00001267,-0.00007319,0.00001549,-0.0000
 3946,0.00027107,0.00003688,0.00010207,-0.00005567,0.00003476,-0.000047
 74,0.00006865,0.00001415,-0.00008657,-0.00005156,-0.00000843,-0.000020
 44,-0.00002601,0.00004727,0.00013155,0.00034245,-0.00014588,-0.0002415
 6,0.00007918,-0.00006260,0.00006380,-0.00002292,-0.00001009,-0.0000201
 1,0.00000323,-0.00025966,0.00074038,-0.00003252,0.00038651,0.00013936,
 -0.00001137,0.00146085,-0.00194104,0.00396054,-0.00019485,0.00064718,-
 0.00151781,-0.00005076,-0.00024115,0.00012716,-0.00054839,-0.00022310,
 0.00013054,-0.00013435,-0.00015835,0.00022717,-0.00062036,-0.00060369,
 0.00113882,-0.00023471,-0.00031715,0.00043689,0.00004758,-0.00032168,0
 .00006944,0.00001342,-0.00005225,0.00002879,0.00000362,0.00001931,0.00
 001059,-0.00000029,-0.00000203,0.00000136,-0.00002110,0.00002918,-0.00
 002316,0.00000317,-0.00001347,0.00000868,-0.00000210,0.00000672,-0.000
 00363,0.00000937,0.00000940,0.00000045,-0.00000177,-0.00000704,0.00000
 673,0.00002687,0.00001489,-0.00001967,-0.00000731,-0.00000465,0.000002
 93,-0.00000009,0.00000765,0.00000039,0.00000144,-0.00000981,0.00000491
 ,-0.00000234,-0.00000727,0.00000271,0.00000963,0.00000240,-0.00000420,
 -0.00000171,0.00000973,-0.00000510,-0.00003892,-0.00002011,-0.00001462
 ,0.00000786,0.00003890,0.00000601,-0.00000202,0.00001438,-0.00000445,0
 .00000138,-0.00001160,0.00000188,-0.00000432,-0.00002333,0.00001895,-0
 .00002814,0.00000026,-0.00002226,-0.00001821,-0.00000087,-0.00000607,-
 0.00001251,0.00007436,-0.00003798,-0.00000137,-0.00001270,0.00000897,0
 .00000561,-0.00000109,-0.00000932,-0.00003064,0.00005318,-0.00001394,0
 .00003149,0.00000564,-0.00002369,-0.00000820,-0.00001753,0.00001408,0.
 00000899,0.00002599,-0.00000326,0.00001783,-0.00024727,-0.00006413,-0.
 07141599,0.00988650,0.00973243,0.03770345,0.,0.,0.,0.,0.,0.,0.00010628
 ,0.00042545,0.00026314,-0.00002232,-0.00012872,-0.00009164,0.,0.,0.,0.
 00002677,-0.00000013,0.00000782,-0.00002186,0.00001108,0.00001447,0.,0
 .,0.,-0.00012847,0.00006413,0.00009226,0.00010552,-0.00004614,0.000084
 17,-0.00120809,-0.00306356,-0.00168239,-0.00012504,0.00056986,-0.00076
 266,0.00024276,0.00025648,0.00077516,0.00003350,-0.00007062,-0.0004567
 9,0.00014110,0.00038999,0.00043661,0.00030805,-0.00019092,-0.00011360,
 -0.00003349,0.00010727,0.00025464,0.00003681,0.00023401,0.00048759,0.0
 0023040,-0.00020065,0.00005234,-0.00007294,0.00015019,0.00004855,-0.00
 028892,0.00012369,0.00027811,-0.00002445,-0.00009346,-0.00002536,-0.00
 023025,0.00012130,-0.00074608,-0.00011700,0.00020327,-0.00006160,-0.00
 004474,0.00009416,0.00003157,-0.00001500,-0.00001121,-0.00003363,0.000
 78806,0.00061376,-0.00044549,0.00104328,0.00094539,-0.00125677,-0.0016
 0420,-0.00019640,0.00905382,-0.00017462,0.00068019,-0.00089854,-0.0001
 3418,-0.00019156,0.00016151,-0.00036968,-0.00044825,0.00125786,-0.0003
 9272,-0.00013855,0.00036400,0.00019814,-0.00072924,0.00047560,-0.00018
 812,-0.00011611,0.00025205,-0.00040131,-0.00022554,0.00020132,-0.00005
 562,-0.00009020,0.00011629,0.00004744,0.00003173,-0.00005712,0.0000026
 3,-0.00000188,0.00002368,-0.00003754,0.00007699,-0.00007565,0.00000164
 ,-0.00001414,0.00001955,-0.00000054,0.00003147,-0.00000011,0.00001295,
 0.00001767,-0.00001138,-0.00000902,-0.00002570,0.00001610,0.00007120,0
 .00006341,-0.00007757,-0.00001429,-0.00001768,0.00001292,-0.00000157,0
 .00000471,0.00000449,-0.00000460,-0.00001036,0.00001049,-0.00000610,-0
 .00000854,0.00001270,0.00000782,-0.00000426,-0.00001799,0.00000624,-0.
 00000512,-0.00001376,-0.00000234,0.00000183,-0.00003857,-0.00000480,0.
 00004360,0.00002409,-0.00000865,-0.00002672,-0.00000954,-0.00000951,-0
 .00002512,0.00000809,0.00000889,-0.00004047,0.00002200,-0.00000875,-0.
 00003412,-0.00011191,-0.00003110,0.00005618,0.00000141,0.00003729,0.00
 010064,-0.00006334,-0.00001170,-0.00004731,-0.00000112,-0.00000204,-0.
 00005263,-0.00003442,-0.00005189,0.00006783,-0.00008961,0.00004679,0.0
 0000587,-0.00004285,-0.00002002,-0.00003346,0.00003597,0.00005194,0.00
 007083,0.00000173,-0.00058018,-0.00080241,0.00023240,0.00776303,-0.334
 61679,-0.41482309,-0.00453130,0.34593565,0.,0.,0.,0.,0.,0.,0.00021375,
 0.00061601,0.00033718,-0.00012947,-0.00031605,-0.00016413,0.,0.,0.,-0.
 00020070,0.00004632,0.00003854,0.00017747,0.00007804,-0.00004308,0.,0.
 ,0.,0.00000057,-0.00000360,0.00014162,-0.00011489,0.00007043,-0.000013
 04,0.00047563,-0.00297310,0.00166413,-0.00041820,0.00022981,-0.0011423
 7,0.00062083,0.00035313,0.00081084,0.00000507,-0.00009191,-0.00046555,
 -0.00059172,0.00068757,0.00002658,0.00036345,-0.00018664,0.00029987,-0
 .00005866,0.00009858,0.00013027,0.00034949,0.00057126,-0.00038935,-0.0
 0025665,-0.00016690,0.00014228,0.00000262,0.00013214,0.00000097,-0.000
 46316,0.00036439,0.00061542,-0.00002691,-0.00008756,0.00000544,0.00019
 567,-0.00010728,-0.00080734,0.00007528,-0.00001521,-0.00016165,0.00007
 884,-0.00034564,0.00023101,-0.00001944,-0.00000921,-0.00002276,-0.0025
 9828,-0.00171162,-0.00444538,0.00046097,0.00018173,-0.00120315,0.00442
 008,0.00849237,-0.00196128,0.00035464,0.00082241,-0.00067907,-0.000045
 13,-0.00023265,0.00014193,0.00010725,0.00114490,0.00051524,-0.00048348
 ,-0.00014761,0.00035803,0.00101335,-0.00043074,0.00027058,0.00002192,-
 0.00015585,0.00040491,0.00093168,0.00089048,0.00072158,0.00001037,0.00
 004739,0.00009686,0.00004005,-0.00002512,-0.00011867,-0.00000271,0.000
 00262,0.00002835,-0.00001702,0.00004226,-0.00005242,-0.00000170,-0.000
 00533,0.00001162,-0.00000118,0.00002388,0.00000807,0.00000591,0.000002
 36,-0.00001875,-0.00000062,-0.00001319,0.00000263,0.00001245,0.0000185
 9,-0.00002201,-0.00000364,0.00000051,0.00000130,0.00001063,0.00000152,
 0.00000425,-0.00000975,0.00000246,0.,0.00000059,0.00001307,0.00000690,
 -0.00001631,-0.00001844,-0.00001605,0.00001474,-0.00004293,0.00000538,
 -0.00005318,-0.00001447,-0.00002676,0.00003288,-0.00002176,0.00001621,
 -0.00000071,-0.00007076,-0.00000036,0.00000620,0.00001638,0.00000521,0
 .00001413,-0.00005466,0.00000905,-0.00002783,-0.00006852,-0.00010715,-
 0.00001961,0.00006575,0.00000897,0.00000210,-0.00000430,0.00000242,-0.
 00000632,-0.00001570,-0.00001352,-0.00002465,-0.00008282,-0.00003229,-
 0.00000837,-0.00004179,-0.00010216,-0.00001210,-0.00000123,-0.00003828
 ,0.00000371,-0.00000622,0.00001518,0.00003101,0.00005081,0.00001918,0.
 00002111,0.00024392,0.00076036,0.00653722,-0.42298803,-0.71203270,-0.0
 1265084,0.46879366,0.76684752,0.,0.,0.,0.,0.,0.,0.00002979,0.00023649,
 0.00013401,0.00005748,-0.00001250,-0.00005770,0.,0.,0.,0.00007001,0.00
 000797,-0.00002629,-0.00001327,-0.00001041,0.00000947,0.,0.,0.,0.00003
 505,-0.00004735,0.00000616,0.00000366,0.00000173,-0.00000221,-0.001427
 32,-0.00054011,-0.00094885,0.00038525,0.00009116,0.00003303,-0.0013482
 3,0.00036989,0.00119956,-0.00057093,0.00008078,-0.00169898,0.00026422,
 0.00014429,0.00013527,0.00001126,0.00000502,-0.00003818,0.00001442,0.0
 0002200,0.00000213,0.00007250,0.00000056,0.00021999,-0.00008381,0.0001
 7130,-0.00006842,0.00007950,-0.00008137,0.00005550,0.00010318,-0.00022
 885,-0.00029226,-0.00000192,-0.00001284,-0.00008768,-0.00002625,0.0000
 5836,-0.00001906,-0.00008184,-0.00006985,0.00000798,-0.00004614,0.0000
 1248,0.00001105,-0.00001097,-0.00002595,0.00000732,0.00074897,0.000294
 36,0.00075437,-0.00005610,0.00010545,0.00024525,0.00037529,-0.00431057
 ,0.00105613,-0.00001125,0.00001887,0.00014713,-0.00002263,-0.00003119,
 -0.00001211,0.00000847,-0.00001570,-0.00003403,0.00018162,0.00007499,-
 0.00016841,0.00003663,0.00012669,-0.00001264,-0.00000516,-0.00011668,-
 0.00004640,-0.00019625,-0.00029180,-0.00006771,0.00000912,-0.00003544,
 0.00001962,0.00000262,0.00001162,0.00000551,0.00000017,-0.00000139,0.0
 0000038,-0.00001165,0.00001722,-0.00001389,0.00000217,-0.00000815,0.00
 000420,-0.00000099,0.00000495,-0.00000211,0.00000581,0.00000592,0.0000
 0034,-0.00000128,-0.00000469,0.00000458,0.00001853,0.00001059,-0.00001
 275,-0.00000532,-0.00000362,0.00000192,0.00000019,0.00000490,0.0000001
 6,0.00000087,-0.00000687,0.00000268,-0.00000208,-0.00000541,0.00000155
 ,0.00000702,0.00000243,-0.00000190,-0.00000169,0.00000788,-0.00000404,
 -0.00002813,-0.00001265,-0.00000734,0.00000406,0.00002581,-0.00000131,
 -0.00000291,0.00001091,-0.00000255,0.00000057,-0.00000877,0.00000008,-
 0.00000410,-0.00001995,0.00001257,-0.00002266,0.00000506,-0.00001601,-
 0.00000925,0.00000182,-0.00000366,-0.00000590,0.00005044,-0.00002420,0
 .00000005,-0.00000866,0.00000491,0.00000299,0.00000232,-0.00000600,-0.
 00001870,0.00003465,-0.00000817,0.00001970,0.00000301,-0.00001085,-0.0
 0000632,-0.00001002,0.00000814,0.00000575,0.00001391,-0.00000256,-0.00
 006387,-0.00024205,-0.00016446,-0.07076559,-0.00603935,-0.01321815,0.0
 3428134,-0.00052718,0.00159776,0.03750107,0.,0.,0.,0.,0.,0.,-0.0000228
 5,0.00044371,0.00026897,0.00007483,-0.00001084,-0.00005674,0.,0.,0.,0.
 00005744,-0.00001304,0.00000328,-0.00005944,-0.00000151,0.00002608,0.,
 0.,0.,-0.00010092,0.00004303,0.00004202,0.00013022,-0.00005984,0.00008
 592,-0.00134506,-0.00218704,-0.00298989,-0.00001812,0.00067580,0.00001
 625,-0.00010169,-0.00017116,0.00064975,0.00032859,0.00001821,-0.000216
 11,0.00038319,0.00023431,0.00054672,0.00022523,-0.00016381,-0.00026868
 ,-0.00001681,0.00009491,0.00024828,-0.00004200,0.00017822,0.00062342,0
 .00036540,-0.00023169,0.00003652,-0.00010851,0.00015876,0.00006173,-0.
 00002997,-0.00023376,-0.00001542,-0.00002091,-0.00010521,-0.00000563,-
 0.00023627,0.00018692,-0.00045006,-0.00012761,0.00006453,0.00002942,-0
 .00007325,0.00019070,-0.00002395,-0.00001839,-0.00001846,-0.00003361,0
 .00173539,-0.00014418,0.00249244,0.00048772,0.00115301,-0.00016257,-0.
 00419220,-0.00708328,0.00306339,0.00016428,0.00032754,-0.00052428,-0.0
 0016332,-0.00013194,0.00008615,0.00008665,0.00060066,0.00033565,-0.000
 29990,-0.00009774,0.00029249,0.00056698,-0.00019549,-0.00005557,-0.000
 20705,-0.00002474,0.00006582,-0.00079536,-0.00085687,-0.00017951,-0.00
 005973,-0.00011130,0.00011235,0.00003869,0.00003388,-0.00003423,0.0000
 0329,-0.00000236,0.00001738,-0.00003337,0.00006932,-0.00006330,0.00000
 290,-0.00001374,0.00001560,-0.00000084,0.00002769,-0.00000159,0.000012
 43,0.00001770,-0.00000839,-0.00000845,-0.00002412,0.00001620,0.0000779
 5,0.00006095,-0.00008177,-0.00001503,-0.00001835,0.00001371,-0.0000030
 7,0.00000535,0.00000452,-0.00000452,-0.00001297,0.00001252,-0.00000638
 ,-0.00001166,0.00001215,0.00001137,-0.00000204,-0.00001747,0.00000447,
 0.00000156,-0.00001614,-0.00000319,0.00000051,-0.00004095,-0.00001006,
 0.00005678,0.00001723,-0.00000751,-0.00001611,-0.00001155,-0.00000968,
 -0.00002919,0.00000766,0.00000601,-0.00003519,0.00002164,-0.00001725,-
 0.00000537,-0.00009448,-0.00002706,0.00004076,0.00000024,0.00004557,0.
 00011629,-0.00008468,-0.00001002,-0.00004387,0.00000795,0.00000368,-0.
 00003932,-0.00003974,-0.00005697,0.00009584,-0.00006173,0.00005761,0.0
 0000646,-0.00004147,-0.00002408,-0.00003839,0.00003134,0.00004198,0.00
 006158,-0.00000064,-0.00043098,-0.00079192,-0.00014921,-0.00459475,-0.
 41441784,-0.45527598,-0.00256502,-0.00978713,-0.05392328,0.01071477,0.
 43189711,0.,0.,0.,0.,0.,0.,0.00031438,0.00072846,0.00040450,-0.0001718
 1,-0.00038519,-0.00019518,0.,0.,0.,-0.00012790,0.00001993,0.00003449,0
 .00011747,0.00005812,-0.00002542,0.,0.,0.,-0.00001868,-0.00000531,0.00
 014912,-0.00005179,0.00003710,0.00001823,-0.00089516,-0.00442905,0.000
 20946,-0.00041283,0.00045208,-0.00226102,0.00039123,0.00088305,0.00091
 787,-0.00062290,-0.00005574,-0.00131455,-0.00028811,0.00071169,0.00026
 795,0.00040279,-0.00021560,0.00015133,-0.00004706,0.00012214,0.0001941
 2,0.00026626,0.00050977,0.00008271,-0.00004270,-0.00021584,0.00010651,
 -0.00002581,0.00017346,0.00002808,-0.00076686,0.00071611,0.00080095,-0
 .00003473,-0.00010296,-0.00004312,0.00005529,-0.00001668,-0.00086785,-
 0.00002789,0.00004831,-0.00011699,0.00002116,-0.00017517,0.00016473,-0
 .00002112,-0.00001632,-0.00003602,-0.00116097,-0.00028413,-0.00212563,
 0.00079846,0.00086520,-0.00121675,0.00273174,0.00604821,0.00541282,0.0
 0039459,0.00066381,-0.00077326,-0.00007978,-0.00019631,0.00012635,0.00
 006898,0.00095069,0.00066951,-0.00046504,-0.00013648,0.00035026,0.0007
 5477,-0.00042514,0.00022233,-0.00009010,-0.00011807,0.00032943,0.00025
 350,0.00024840,0.00042855,-0.00001286,-0.00001088,0.00011744,0.0000448
 2,-0.00000445,-0.00009968,-0.00000088,0.00000081,0.00002812,-0.0000276
 8,0.00005995,-0.00006381,0.00000013,-0.00001089,0.00001547,-0.00000132
 ,0.00002817,0.00000527,0.00000996,0.00000914,-0.00001676,-0.00000373,-
 0.00001911,0.00000806,0.00004134,0.00003574,-0.00004734,-0.00000901,-0
 .00000667,0.00000582,0.00000691,0.00000391,0.00000516,-0.00000932,-0.0
 0000439,0.00000544,-0.00000203,0.00000540,0.00000977,-0.00000746,-0.00
 001485,-0.00001886,0.00001253,-0.00003200,-0.00000182,-0.00004795,-0.0
 0001285,-0.00003895,0.00001914,0.00001607,0.00001651,-0.00000314,-0.00
 005902,-0.00000441,0.00000099,0.00000053,0.00000747,0.00001304,-0.0000
 5364,0.00001736,-0.00002428,-0.00003049,-0.00010041,-0.00002687,0.0000
 6539,0.00000629,0.00002183,0.00004701,-0.00003732,-0.00000875,-0.00003
 037,-0.00000485,-0.00001526,-0.00007509,-0.00004277,-0.00003266,0.0000
 1242,-0.00009788,0.00001546,0.00000153,-0.00004459,-0.00000776,-0.0000
 1966,0.00002364,0.00004011,0.00006205,0.00001388,-0.00021666,-0.000192
 93,0.00055782,-0.01146045,-0.44894934,-0.64751720,-0.00117081,-0.06223
 337,-0.05064618,0.01147863,0.50516081,0.69583657\\0.,0.,0.,0.,0.,0.,-0
 .00000013,0.00000018,0.00000019,-0.00000008,-0.00000015,-0.00000006,0.
 ,0.,0.,0.00000016,-0.00000015,-0.00000003,0.00000005,0.00000003,-0.000
 00001,0.,0.,0.,-0.00000051,0.00000020,0.00000051,-0.00000001,0.0000000
 1,-0.00000007,0.00000007,-0.00000001,0.00000005,0.00000025,-0.00000018
 ,-0.00000037,0.00000015,0.00000013,0.00000007,-0.00000007,-0.00000002,
 0.00000003,-0.00000042,0.00000029,0.00000051,0.00000064,-0.00000035,-0
 .00000071,-0.00000008,0.00000006,0.00000023,0.00000030,0.00000021,0.00
 000003,-0.00000012,-0.00000029,0.00000012,0.00000002,0.00000003,-0.000
 00002,-0.00000099,-0.00000043,0.00000036,0.00000042,0.00000019,-0.0000
 0012,0.00000012,-0.00000017,-0.00000049,0.00000001,-0.00000001,0.00000
 013,-0.00000049,-0.00000002,-0.00000016,0.00000014,-0.00000006,0.00000
 002,-0.00000040,-0.00000044,0.00000020,-0.00000016,-0.00000007,-0.0000
 0046,0.00000020,0.00000031,0.00000001,0.00000006,0.00000046,0.00000023
 ,0.00000016,-0.00000007,0.00000012,-0.00000001,-0.00000003,0.00000015,
 0.00000014,-0.00000011,-0.00000021,-0.00000008,-0.00000005,0.00000009,
 -0.00000008,-0.00000018,-0.00000010,0.00000008,0.00000012,-0.00000017,
 -0.00000006,0.00000016,-0.00000031,0.00000032,-0.00000001,0.00000010,0
 .00000047,0.00000032,-0.00000011,-0.00000017,-0.00000019,0.00000015,-0
 .00000011,0.00000006,-0.00000002,-0.00000007,-0.00000007,-0.00000004,-
 0.00000038,0.00000012,-0.00000009,-0.00000003,-0.00000028,0.00000015,-
 0.00000019,0.00000002,-0.00000027,0.00000023,-0.00000025,0.00000066,0.
 00000007,-0.00000002,0.00000002,0.00000005,-0.00000003,0.00000001,0.00
 000013,0.00000030,-0.00000019,-0.00000015,0.00000010,-0.00000009,-0.00
 000020,-0.00000014,-0.00000013,-0.00000002,0.00000062,0.00000020,-0.00
 000002,-0.00000027,0.00000049,0.00000008,-0.00000021,-0.00000032,0.000
 00010,-0.00000029,0.00000005,0.,0.,0.00000003,-0.00000011,0.00000023,-
 0.00000012,0.,-0.00000009,-0.00000030,0.00000037,-0.00000006,0.0000004
 6,-0.00000030,0.00000041,-0.00000017,-0.00000007,-0.00000005,-0.000000
 25,-0.00000003,-0.00000002,-0.00000001,0.00000011,-0.00000033,-0.00000
 002,-0.00000003,-0.00000004,0.00000005,0.00000001,0.,0.00000005,0.0000
 0007,0.00000010,0.00000008,0.00000014,-0.00000116,-0.00000141,-0.00000
 010,0.00000059,0.00000081,-0.00000004,0.00000055,0.00000061\\\@


 "I COULD HAVE DONE IT IN A MUCH MORE COMPLICATED WAY"
 SAID THE RED QUEEN, IMMENSELY PROUD.

                                      -- LEWIS CARROLL
 Job cpu time:       2 days 18 hours 24 minutes 51.7 seconds.
 Elapsed time:       0 days  1 hours  4 minutes  6.7 seconds.
 File lengths (MBytes):  RWF=   4356 Int=      0 D2E=      0 Chk=     40 Scr=      1
 Normal termination of Gaussian 16 at Sat Nov  9 16:00:51 2019.
