 Entering Gaussian System, Link 0=g16
 Input=Zn_PC_opt_freq3.com
 Output=Zn_PC_opt_freq3.log
 Initial command:
 /apps/commercial/G16/g16.linda/l1.exe "/scratch/x1711a05/Gau-42559.inp" -scrdir="/scratch/x1711a05/"
 Default linda workers: node5853
 Entering Link 1 = /apps/commercial/G16/g16.linda/l1.exe PID=     42560.
  
 Copyright (c) 1988,1990,1992,1993,1995,1998,2003,2009,2016,
            Gaussian, Inc.  All Rights Reserved.
  
 This is part of the Gaussian(R) 16 program.  It is based on
 the Gaussian(R) 09 system (copyright 2009, Gaussian, Inc.),
 the Gaussian(R) 03 system (copyright 2003, Gaussian, Inc.),
 the Gaussian(R) 98 system (copyright 1998, Gaussian, Inc.),
 the Gaussian(R) 94 system (copyright 1995, Gaussian, Inc.),
 the Gaussian 92(TM) system (copyright 1992, Gaussian, Inc.),
 the Gaussian 90(TM) system (copyright 1990, Gaussian, Inc.),
 the Gaussian 88(TM) system (copyright 1988, Gaussian, Inc.),
 the Gaussian 86(TM) system (copyright 1986, Carnegie Mellon
 University), and the Gaussian 82(TM) system (copyright 1983,
 Carnegie Mellon University). Gaussian is a federally registered
 trademark of Gaussian, Inc.
  
 This software contains proprietary and confidential information,
 including trade secrets, belonging to Gaussian, Inc.
  
 This software is provided under written license and may be
 used, copied, transmitted, or stored only in accord with that
 written license.
  
 The following legend is applicable only to US Government
 contracts under FAR:
  
                    RESTRICTED RIGHTS LEGEND
  
 Use, reproduction and disclosure by the US Government is
 subject to restrictions as set forth in subparagraphs (a)
 and (c) of the Commercial Computer Software - Restricted
 Rights clause in FAR 52.227-19.
  
 Gaussian, Inc.
 340 Quinnipiac St., Bldg. 40, Wallingford CT 06492
  
  
 ---------------------------------------------------------------
 Warning -- This program may not be used in any manner that
 competes with the business of Gaussian, Inc. or will provide
 assistance to any competitor of Gaussian, Inc.  The licensee
 of this program is prohibited from giving any competitor of
 Gaussian, Inc. access to this program.  By using this program,
 the user acknowledges that Gaussian, Inc. is engaged in the
 business of creating and licensing software in the field of
 computational chemistry and represents and warrants to the
 licensee that it is not a competitor of Gaussian, Inc. and that
 it will not use this program in any manner prohibited above.
 ---------------------------------------------------------------
  

 Cite this work as:
 Gaussian 16, Revision A.03,
 M. J. Frisch, G. W. Trucks, H. B. Schlegel, G. E. Scuseria, 
 M. A. Robb, J. R. Cheeseman, G. Scalmani, V. Barone, 
 G. A. Petersson, H. Nakatsuji, X. Li, M. Caricato, A. V. Marenich, 
 J. Bloino, B. G. Janesko, R. Gomperts, B. Mennucci, H. P. Hratchian, 
 J. V. Ortiz, A. F. Izmaylov, J. L. Sonnenberg, D. Williams-Young, 
 F. Ding, F. Lipparini, F. Egidi, J. Goings, B. Peng, A. Petrone, 
 T. Henderson, D. Ranasinghe, V. G. Zakrzewski, J. Gao, N. Rega, 
 G. Zheng, W. Liang, M. Hada, M. Ehara, K. Toyota, R. Fukuda, 
 J. Hasegawa, M. Ishida, T. Nakajima, Y. Honda, O. Kitao, H. Nakai, 
 T. Vreven, K. Throssell, J. A. Montgomery, Jr., J. E. Peralta, 
 F. Ogliaro, M. J. Bearpark, J. J. Heyd, E. N. Brothers, K. N. Kudin, 
 V. N. Staroverov, T. A. Keith, R. Kobayashi, J. Normand, 
 K. Raghavachari, A. P. Rendell, J. C. Burant, S. S. Iyengar, 
 J. Tomasi, M. Cossi, J. M. Millam, M. Klene, C. Adamo, R. Cammi, 
 J. W. Ochterski, R. L. Martin, K. Morokuma, O. Farkas, 
 J. B. Foresman, and D. J. Fox, Gaussian, Inc., Wallingford CT, 2016.
 
 ******************************************
 Gaussian 16:  ES64L-G16RevA.03 25-Dec-2016
                20-Dec-2019 
 ******************************************
 %nprocshared=64
 Will use up to   64 processors via shared memory.
 %mem=64GB
 %chk=Zn_PC_opt_freq3.chk
 SetLPE:    new flags="-opt 'Tsnet.Node.lindarsharg: ssh'  -nodelist 'node5853' -env GAUSS_MDEF=8589934592 -env GAUSS_EXEDIR="/apps/commercial/G16/g16.linda""
 Will use up to    1 processors via Linda.
 ----------------------------------------------------------------------
 # opt=(calcall,tight,cartesian) freq cam-b3lyp/gen nosymm scf=(qc,maxc
 ycle=1024,vshift=100) pseudo=read
 ----------------------------------------------------------------------
 1/7=10,10=4,18=10,26=3,38=1/1,3;
 2/12=2,15=1,17=6,18=5,29=2,40=1/2;
 3/5=7,11=2,16=1,17=8,25=1,30=1,71=2,74=-40,140=1/1,2,3;
 4//1;
 5/5=2,7=1024,8=3,10=100,38=5/8;
 8/6=4,10=90,11=11/1;
 11/6=1,8=1,9=11,15=111,16=1,31=1/1,2,10;
 10/6=1,31=1/2;
 6/7=2,8=2,9=2,10=2,18=1,28=1/1;
 7/7=1,10=1,25=1,30=1/1,2,3,16;
 1/7=10,10=4,18=10,26=3/3(3);
 2/15=1,29=1/2;
 7/7=1,8=1,9=1,25=1,30=1,44=-1/16;
 99/12=1/99;
 2/15=1,29=1/2;
 3/5=7,6=1,11=2,16=1,17=8,25=1,30=1,71=2,74=-40,82=7,140=1/1,2,3;
 4/5=5,16=3,69=1/1;
 5/5=2,7=1024,8=3,10=100,38=5/8;
 8/6=4,10=90,11=11/1;
 11/6=1,8=1,9=11,15=111,16=1,31=1/1,2,10;
 10/6=1,31=1/2;
 7/7=1,10=1,25=1,30=1/1,2,3,16;
 1/7=10,10=4,18=10,26=3/3(-8);
 2/15=1,29=1/2;
 6/7=2,8=2,9=2,10=2,18=1,19=2,28=1/1;
 7/7=1,8=1,9=1,25=1,30=1,44=-1/16;
 99/12=1/99;
 ---------------
 Zn_PC_opt_freq3
 ---------------
 Symbolic Z-matrix:
 Charge =  0 Multiplicity = 1
 Li                   -1   -0.65617  -5.03839  -3.45744 
 N                    -1   -0.28279  -3.67558  -2.19468 
 C                    0    -0.79282  -4.12056  -1.01087 
 Cl                   0    -1.44389  -5.72689  -0.94782 
 N                    -1    2.32823   2.59905  -2.41943 
 C                    0     3.25756   1.64643  -2.16755 
 Cl                   0     4.89277   1.77573  -2.70864 
 N                    -1   -3.32748   2.07508   1.06573 
 C                    0    -3.96809   1.04005   0.47273 
 Cl                   0    -5.66701   0.78367   0.63887 
 Zn                   0     0.00151  -0.04825  -0.16307 
 N                    0    -0.10975  -2.05803  -0.66213 
 C                    0    -0.69317  -3.14188  -0.06712 
 Cl                   0    -1.18415  -3.16953   1.56922 
 N                    0    -1.83452   0.83584  -0.09699 
 C                    0    -3.0734    0.27946  -0.23629 
 Cl                   0    -3.37302  -1.12033  -1.19729 
 N                    0     1.38175   0.91484  -1.24422 
 C                    0     2.70093   0.61862  -1.4527 
 Cl                   0     3.41825  -0.83539  -0.86148 
 C                    0     0.11658  -2.42884  -1.92605 
 H                    0     0.58262  -1.77621  -2.65096 
 C                    0    -2.06638   1.91685   0.6911 
 H                    0    -1.2716    2.59525   0.97838 
 C                    0     1.23196   2.12407  -1.85392 
 H                    0     0.27859   2.63686  -1.86652 
 C                    0    -1.21581   1.5366    4.58686 
 C                    0    -2.29624   0.67198   3.92414 
 O                    0    -0.14128   1.46329   3.61333 
 C                    0    -0.7169    1.03068   5.92266 
 H                    0    -3.01819   1.25364   3.34706 
 H                    0    -2.7947   -0.00745   4.61495 
 H                    0     0.15294   1.60363   6.24882 
 H                    0    -0.43707  -0.02451   5.85742 
 H                    0    -1.50278   1.13489   6.67548 
 H                    0    -1.51205   2.58483   4.63895 
 C                    0    -0.37481   0.47193   2.76795 
 O                    0    -1.53612  -0.12083   2.98846 
 O                    0     0.40742   0.14652   1.89079 
 

 GradGradGradGradGradGradGradGradGradGradGradGradGradGradGradGradGradGrad
 Berny optimization.
 Initialization pass.
 No Z-matrix variables, so optimization will use Cartesian coordinates.
 Trust Radius=3.00D-01 FncErr=1.00D-07 GrdErr=1.00D-06 EigMax=2.50D+02 EigMin=1.00D-04
 Number of steps in this run=    127 maximum allowed number of steps=    234.
 GradGradGradGradGradGradGradGradGradGradGradGradGradGradGradGradGradGrad

 ---------------------------------------------------------------------------------------------------
                            Z-MATRIX (ANGSTROMS AND DEGREES)
   CD    Cent   Atom    N1       Length/X        N2       Alpha/Y        N3        Beta/Z          J
 ---------------------------------------------------------------------------------------------------
      1      1  Li      -1  -0.656174         -5.038394         -3.457440
      2      2  N       -1  -0.282792         -3.675582         -2.194684
      3      3  C        0  -0.792823         -4.120562         -1.010868
      4      4  Cl       0  -1.443886         -5.726887         -0.947816
      5      5  N       -1   2.328228          2.599049         -2.419433
      6      6  C        0   3.257560          1.646430         -2.167553
      7      7  Cl       0   4.892770          1.775734         -2.708638
      8      8  N       -1  -3.327483          2.075083          1.065729
      9      9  C        0  -3.968087          1.040054          0.472730
     10     10  Cl       0  -5.667012          0.783674          0.638873
     11     11  Zn       0   0.001514         -0.048250         -0.163070
     12     12  N        0  -0.109746         -2.058027         -0.662126
     13     13  C        0  -0.693170         -3.141881         -0.067120
     14     14  Cl       0  -1.184148         -3.169529          1.569220
     15     15  N        0  -1.834517          0.835838         -0.096993
     16     16  C        0  -3.073401          0.279462         -0.236288
     17     17  Cl       0  -3.373019         -1.120329         -1.197285
     18     18  N        0   1.381753          0.914842         -1.244223
     19     19  C        0   2.700930          0.618620         -1.452703
     20     20  Cl       0   3.418250         -0.835392         -0.861483
     21     21  C        0   0.116584         -2.428836         -1.926051
     22     22  H        0   0.582623         -1.776211         -2.650958
     23     23  C        0  -2.066382          1.916848          0.691102
     24     24  H        0  -1.271598          2.595249          0.978380
     25     25  C        0   1.231957          2.124070         -1.853920
     26     26  H        0   0.278592          2.636860         -1.866516
     27     27  C        0  -1.215809          1.536603          4.586864
     28     28  C        0  -2.296243          0.671977          3.924139
     29     29  O        0  -0.141283          1.463290          3.613328
     30     30  C        0  -0.716899          1.030684          5.922662
     31     31  H        0  -3.018186          1.253643          3.347063
     32     32  H        0  -2.794702         -0.007453          4.614952
     33     33  H        0   0.152935          1.603634          6.248818
     34     34  H        0  -0.437065         -0.024511          5.857418
     35     35  H        0  -1.502783          1.134888          6.675475
     36     36  H        0  -1.512053          2.584829          4.638950
     37     37  C        0  -0.374810          0.471933          2.767946
     38     38  O        0  -1.536117         -0.120830          2.988462
     39     39  O        0   0.407423          0.146522          1.890790
 ---------------------------------------------------------------------------------------------------
                         Z-Matrix orientation:                         
 ---------------------------------------------------------------------
 Center     Atomic      Atomic             Coordinates (Angstroms)
 Number     Number       Type             X           Y           Z
 ---------------------------------------------------------------------
      1          3           0       -0.656174   -5.038394   -3.457440
      2          7           0       -0.282792   -3.675582   -2.194684
      3          6           0       -0.792823   -4.120562   -1.010868
      4         17           0       -1.443886   -5.726887   -0.947816
      5          7           0        2.328228    2.599049   -2.419433
      6          6           0        3.257560    1.646430   -2.167553
      7         17           0        4.892770    1.775734   -2.708638
      8          7           0       -3.327483    2.075083    1.065729
      9          6           0       -3.968087    1.040054    0.472730
     10         17           0       -5.667012    0.783674    0.638873
     11         30           0        0.001514   -0.048250   -0.163070
     12          7           0       -0.109746   -2.058027   -0.662126
     13          6           0       -0.693170   -3.141881   -0.067120
     14         17           0       -1.184148   -3.169529    1.569220
     15          7           0       -1.834517    0.835838   -0.096993
     16          6           0       -3.073401    0.279462   -0.236288
     17         17           0       -3.373019   -1.120329   -1.197285
     18          7           0        1.381753    0.914842   -1.244223
     19          6           0        2.700930    0.618620   -1.452703
     20         17           0        3.418250   -0.835392   -0.861483
     21          6           0        0.116584   -2.428836   -1.926051
     22          1           0        0.582623   -1.776211   -2.650958
     23          6           0       -2.066382    1.916848    0.691102
     24          1           0       -1.271598    2.595249    0.978380
     25          6           0        1.231957    2.124070   -1.853920
     26          1           0        0.278592    2.636860   -1.866516
     27          6           0       -1.215809    1.536603    4.586864
     28          6           0       -2.296243    0.671977    3.924139
     29          8           0       -0.141283    1.463290    3.613328
     30          6           0       -0.716899    1.030684    5.922662
     31          1           0       -3.018186    1.253643    3.347063
     32          1           0       -2.794702   -0.007453    4.614952
     33          1           0        0.152935    1.603634    6.248818
     34          1           0       -0.437065   -0.024511    5.857418
     35          1           0       -1.502783    1.134888    6.675475
     36          1           0       -1.512053    2.584829    4.638950
     37          6           0       -0.374810    0.471933    2.767946
     38          8           0       -1.536117   -0.120830    2.988462
     39          8           0        0.407423    0.146522    1.890790
 ---------------------------------------------------------------------
                    Distance matrix (angstroms):
                    1          2          3          4          5
     1  Li   0.000000
     2  N    1.895052   0.000000
     3  C    2.616640   1.363657   0.000000
     4  Cl   2.718957   2.666584   1.734399   0.000000
     5  N    8.265268   6.799921   7.541763   9.258278   0.000000
     6  C    7.852897   6.392076   7.141549   8.829335   1.354468
     7  Cl   8.819514   7.534417   8.365088   9.977125   2.708941
     8  N    8.842879   7.278089   7.008764   8.274844   6.663930
     9  C    7.960059   6.552383   6.238215   7.360777   7.102018
    10  Cl   8.705444   7.543463   7.108509   7.920845   8.750582
    11  Zn   6.015560   4.167232   4.234791   5.912015   4.184849
    12  N    4.122493   2.234986   2.200515   3.914343   5.542581
    13  C    3.884894   2.231541   1.363234   2.832218   6.900761
    14  Cl   5.388759   3.903269   2.777490   3.597640   7.843636
    15  N    6.869330   5.211628   5.146474   6.629167   5.082429
    16  C    6.670712   5.221608   5.016096   6.264010   6.270901
    17  Cl   5.276436   4.132024   3.961510   5.000417   6.916042
    18  N    6.670269   4.974543   5.489857   7.223895   2.261302
    19  C    6.876840   5.281411   5.904352   7.596043   2.235078
    20  Cl   6.403526   4.851991   5.343014   6.897430   3.925652
    21  C    3.122835   1.336428   2.127561   3.777453   5.514927
    22  H    3.581462   2.136525   3.174544   4.755552   4.716316
    23  C    8.220370   6.540965   6.400701   7.842209   5.427101
    24  H    8.850297   7.097140   7.020573   8.543879   4.950141
    25  C    7.578734   6.003878   6.618603   8.343781   1.321825
    26  H    7.893944   6.345847   6.895130   8.588551   2.123242
    27  C   10.404547   8.603882   7.969758   9.134713   7.923206
    28  C    9.475541   7.771438   7.041519   8.087516   8.083331
    29  O    9.619395   7.756354   7.279224   8.613911   6.616845
    30  C   11.172453   9.393013   8.637994   9.664199   9.017933
    31  H    9.564000   7.905100   7.268142   8.345790   7.977890
    32  H    9.749214   8.132405   7.250864   8.092034   9.084098
    33  H   11.789090   9.967583   9.293219  10.396053   8.992293
    34  H   10.580813   8.842537   8.004845   8.935435   9.112419
    35  H   11.895467  10.164090   9.338290  10.256802   9.976861
    36  H   11.153367   9.348924   8.797727  10.015050   8.035467
    37  C    8.318552   6.468233   5.961978   7.305832   6.224142
    38  O    8.155145   6.408751   5.704821   6.850596   7.181659
    39  O    7.524504   5.637018   5.297944   6.781000   5.318120
                    6          7          8          9         10
     6  C    0.000000
     7  Cl   1.727253   0.000000
     8  N    7.348513   9.050305   0.000000
     9  C    7.716784   9.443363   1.353996   0.000000
    10  Cl   9.395124  11.122006   2.706167   1.726175   0.000000
    11  Zn   4.182311   5.807858   4.135301   4.164898   5.785101
    12  N    5.227625   6.626545   5.515606   5.076692   6.375819
    13  C    6.553473   7.897043   5.953122   5.339017   6.375540
    14  Cl   7.542261   8.926625   5.688000   5.164610   6.048920
    15  N    5.556395   7.277395   2.261990   2.217749   3.902850
    16  C    6.758658   8.474150   2.232501   1.371740   2.783335
    17  Cl   7.249893   8.887893   3.915861   2.794693   3.501301
    18  N    2.215042   3.900370   5.372052   5.619999   7.297146
    19  C    1.370124   2.778569   6.693695   6.954185   8.626957
    20  Cl   2.809107   3.521955   7.595388   7.736627   9.349568
    21  C    5.150907   6.411147   6.410743   5.871276   7.095706
    22  H    4.370748   5.585428   6.628360   6.196591   7.512252
    23  C    6.048917   7.746479   1.325051   2.105454   3.775096
    24  H    5.595572   7.229463   2.122467   3.153627   4.766207
    25  C    2.104655   3.775372   5.414355   5.799039   7.456973
    26  H    3.153700   4.768789   4.681606   5.104522   6.712785
    27  C    8.102175   9.518207   4.140956   4.974705   5.997228
    28  C    8.300783   9.843471   3.347039   3.852631   4.708241
    29  O    6.708521   8.087433   4.125097   4.968593   6.312127
    30  C    9.034769  10.320990   5.612104   6.346028   7.244519
    31  H    8.363627   9.976338   2.444364   3.034752   3.817256
    32  H    9.239458  10.766241   4.149433   4.430813   4.968425
    33  H    8.970832  10.135663   6.260989   7.117839   8.124998
    34  H    8.991243  10.248187   5.976880   6.526583   7.432276
    35  H   10.055928  11.374329   5.973504   6.675385   7.341983
    36  H    8.364107   9.780769   4.040240   5.076989   6.042223
    37  C    6.239608   7.709752   3.766419   4.301444   5.712927
    38  O    7.258584   8.796846   3.424606   3.686602   4.837664
    39  O    5.181038   6.627775   4.283643   4.685550   6.234743
                   11         12         13         14         15
    11  Zn   0.000000
    12  N    2.073798   0.000000
    13  C    3.172120   1.367171   0.000000
    14  Cl   3.761516   2.714532   1.708635   0.000000
    15  N    2.038869   3.415943   4.138335   4.386594   0.000000
    16  C    3.093195   3.798479   4.171295   4.327202   1.365207
    17  Cl   3.688689   3.437241   3.541968   4.079697   2.721070
    18  N    2.000374   3.376589   4.706153   5.584030   3.415666
    19  C    3.065080   3.960979   5.251773   6.210952   4.738714
    20  Cl   3.575117   3.739162   4.780657   5.704260   5.564981
    21  C    2.964546   1.336500   2.149363   3.802295   4.220230
    22  H    3.084335   2.124676   3.188875   4.782543   4.380423
    23  C    2.977820   4.632416   5.296353   5.236474   1.357733
    24  H    3.148303   5.068939   5.860231   5.795637   2.137483
    25  C    3.015284   4.550876   5.884642   6.751121   3.761595
    26  H    3.191914   4.862440   6.129926   6.903481   3.292434
    27  C    5.153204   6.457293   6.619738   5.590604   4.776232
    28  C    4.743806   5.767800   5.748522   4.641074   4.050870
    29  O    4.070175   5.538969   5.920969   5.170005   4.126405
    30  C    6.222246   7.298507   7.299887   6.067336   6.125625
    31  H    4.809839   5.958169   6.031830   5.107727   3.665673
    32  H    5.536243   6.265891   6.013558   4.676440   4.882164
    33  H    6.622987   7.825465   7.945243   6.816855   6.693937
    34  H    6.036488   6.837162   6.699533   5.370094   6.176413
    35  H    7.101297   8.122539   8.025510   6.686058   6.787179
    36  H    5.681847   7.184983   7.457404   6.530191   5.058864
    37  C    3.000511   4.270404   4.604194   3.918191   3.235900
    38  O    3.507382   4.371963   4.378800   3.381227   3.244116
    39  O    2.102627   3.412460   3.982249   3.692249   3.074530
                   16         17         18         19         20
    16  C    0.000000
    17  Cl   1.724152   0.000000
    18  N    4.611728   5.172232   0.000000
    19  C    5.910803   6.323135   1.368006   0.000000
    20  Cl   6.616291   6.805534   2.712403   1.725758   0.000000
    21  C    4.512891   3.797449   3.639468   4.023666   3.817508
    22  H    4.839725   4.265026   3.139949   3.414419   3.482548
    23  C    2.134285   3.807591   4.079109   5.385959   6.329813
    24  H    3.175655   4.791139   3.847597   5.059467   6.095004
    25  C    4.955343   5.671252   1.362498   2.141317   3.810935
    26  H    4.410309   5.281913   2.137653   3.179977   4.787910
    27  C    5.319196   6.720805   6.413696   7.256715   7.535605
    28  C    4.250552   5.531798   6.348118   7.340641   7.604589
    29  O    4.981798   6.345172   5.120179   5.869950   6.162641
    30  C    6.637025   7.897815   7.468735   8.139248   8.161270
    31  H    3.713823   5.139333   6.368215   7.493283   7.968917
    32  H    4.867702   5.946011   7.254194   8.210382   8.323316
    33  H    7.363374   8.677371   7.624309   8.171656   8.195579
    34  H    6.646497   7.719422   7.390791   7.981134   7.788749
    35  H    7.139402   8.400246   8.431523   9.165425   9.214353
    36  H    5.614309   7.159122   6.765700   7.663122   8.140059
    37  C    4.042878   5.219925   4.402179   5.224516   5.410098
    38  O    3.594786   4.679069   5.244254   6.182500   6.314937
    39  O    4.081454   5.043100   3.371638   4.081911   4.195741
                   21         22         23         24         25
    21  C    0.000000
    22  H    1.081019   0.000000
    23  C    5.522662   5.641390   0.000000
    24  H    5.966925   5.976612   1.083715   0.000000
    25  C    4.688093   4.033497   4.171225   3.809425   0.000000
    26  H    5.068636   4.492547   3.543830   3.240101   1.082597
    27  C    7.740674   8.160586   4.005624   3.760984   6.915228
    28  C    7.047091   7.583759   3.472041   3.664201   6.924069
    29  O    6.774944   7.089407   3.528615   3.082514   5.675669
    30  C    8.617730   9.114515   5.474999   5.215504   8.091277
    31  H    7.154940   7.623785   2.898258   3.234368   6.772856
    32  H    7.558003   8.205381   4.430574   4.724252   7.912249
    33  H    9.115406   9.529638   5.992635   5.548884   8.190818
    34  H    8.165151   8.746467   5.754509   5.600411   8.177210
    35  H    9.450330   9.990284   6.061504   5.885830   9.011541
    36  H    8.419533   8.749234   4.042151   3.668474   7.063940
    37  C    5.539814   5.944354   3.043432   2.918089   5.164582
    38  O    5.675452   6.247592   3.116276   3.389319   6.012526
    39  O    4.613603   4.935086   3.270018   3.106102   4.314326
                   26         27         28         29         30
    26  H    0.000000
    27  C    6.714902   0.000000
    28  C    6.634925   1.534314   0.000000
    29  O    5.619809   1.451810   2.316599   0.000000
    30  C    8.015117   1.513017   2.572371   2.418988   0.000000
    31  H    6.321664   2.205841   1.092041   2.896795   3.461119
    32  H    7.645061   2.208574   1.089637   3.194835   2.665539
    33  H    8.181809   2.154076   3.502940   2.655573   1.091449
    34  H    8.200867   2.158200   2.771138   2.708686   1.093618
    35  H    8.854085   2.146165   2.900640   3.367235   1.093252
    36  H    6.747607   1.090528   2.187444   2.046646   2.166922
    37  C    5.156751   2.269199   2.251378   1.323629   3.222027
    38  O    5.871016   2.324773   1.442853   2.201240   3.256783
    39  O    4.509515   3.440352   3.423510   2.236536   4.278064
                   31         32         33         34         35
    31  H    0.000000
    32  H    1.802179   0.000000
    33  H    4.312619   3.735463   0.000000
    34  H    3.820700   2.665045   1.775430   0.000000
    35  H    3.659081   2.686960   1.772896   1.774592   0.000000
    36  H    2.389449   2.892350   2.515274   3.073909   2.499970
    37  C    2.816715   3.081740   3.698071   3.129724   4.120754
    38  O    2.052876   2.059699   4.056673   3.073776   3.895126
    39  O    3.883458   4.206943   4.602211   4.059132   5.245852
                   36         37         38         39
    36  H    0.000000
    37  C    3.042747   0.000000
    38  O    3.169429   1.322357   0.000000
    39  O    4.145131   1.219501   2.248046   0.000000
 Symmetry turned off by external request.
 Stoichiometry    C13H9Cl6LiN6O3Zn
 Framework group  C1[X(C13H9Cl6LiN6O3Zn)]
 Deg. of freedom   111
 Full point group                 C1      NOp   1
 Rotational constants (GHZ):           0.1104437           0.0844349           0.0656351
 General basis read from cards:  (5D, 7F)
 ======================================================================================================
                                       Pseudopotential Parameters
 ======================================================================================================
  Center     Atomic      Valence      Angular      Power
  Number     Number     Electrons     Momentum     of R      Exponent        Coefficient   SO-Coeffient
 ======================================================================================================
    1          3
                                   No pseudopotential on this center.
    2          7
                                   No pseudopotential on this center.
    3          6
                                   No pseudopotential on this center.
    4         17
                                   No pseudopotential on this center.
    5          7
                                   No pseudopotential on this center.
    6          6
                                   No pseudopotential on this center.
    7         17
                                   No pseudopotential on this center.
    8          7
                                   No pseudopotential on this center.
    9          6
                                   No pseudopotential on this center.
   10         17
                                   No pseudopotential on this center.
   11         30           12
                                      F and up 
                                                     1      386.7379660      -18.00000000    0.00000000
                                                     2       72.8587359     -124.35274030    0.00000000
                                                     2       15.9066170      -30.66018220    0.00000000
                                                     2        4.3502340      -10.63589890    0.00000000
                                                     2        1.2842199       -0.76836230    0.00000000
                                      S - F
                                                     0       19.0867858        3.00000000    0.00000000
                                                     1        5.0231080       22.52342250    0.00000000
                                                     2        1.2701744       48.44659420    0.00000000
                                                     2        1.0671287      -44.55601190    0.00000000
                                                     2        0.9264190       12.99839580    0.00000000
                                      P - F
                                                     0       43.4927750        5.00000000    0.00000000
                                                     1       20.8692669       20.74355890    0.00000000
                                                     2       21.7118378       90.30271580    0.00000000
                                                     2        6.3616915       74.66103160    0.00000000
                                                     2        1.2291195        9.88944240    0.00000000
                                      D - F
                                                     2       13.5851800       -4.84903590    0.00000000
                                                     2        9.8373050        3.69133790    0.00000000
                                                     2        0.8373113       -0.50373190    0.00000000
   12          7
                                   No pseudopotential on this center.
   13          6
                                   No pseudopotential on this center.
   14         17
                                   No pseudopotential on this center.
   15          7
                                   No pseudopotential on this center.
   16          6
                                   No pseudopotential on this center.
   17         17
                                   No pseudopotential on this center.
   18          7
                                   No pseudopotential on this center.
   19          6
                                   No pseudopotential on this center.
   20         17
                                   No pseudopotential on this center.
   21          6
                                   No pseudopotential on this center.
   22          1
                                   No pseudopotential on this center.
   23          6
                                   No pseudopotential on this center.
   24          1
                                   No pseudopotential on this center.
   25          6
                                   No pseudopotential on this center.
   26          1
                                   No pseudopotential on this center.
   27          6
                                   No pseudopotential on this center.
   28          6
                                   No pseudopotential on this center.
   29          8
                                   No pseudopotential on this center.
   30          6
                                   No pseudopotential on this center.
   31          1
                                   No pseudopotential on this center.
   32          1
                                   No pseudopotential on this center.
   33          1
                                   No pseudopotential on this center.
   34          1
                                   No pseudopotential on this center.
   35          1
                                   No pseudopotential on this center.
   36          1
                                   No pseudopotential on this center.
   37          6
                                   No pseudopotential on this center.
   38          8
                                   No pseudopotential on this center.
   39          8
                                   No pseudopotential on this center.
 ======================================================================================================
   493 basis functions,  1058 primitive gaussians,   524 cartesian basis functions
   135 alpha electrons      135 beta electrons
       nuclear repulsion energy      4200.8159077469 Hartrees.
 NAtoms=   39 NActive=   39 NUniq=   39 SFac= 1.00D+00 NAtFMM=   60 NAOKFM=F Big=F
 Integral buffers will be    131072 words long.
 Raffenetti 2 integral format.
 Two-electron integral symmetry is turned off.
 One-electron integrals computed using PRISM.
   1 Symmetry operations used in ECPInt.
 ECPInt:  NShTT=   12090 NPrTT=   84901 LenC2=    9404 LenP2D=   33905.
 LDataN:  DoStor=T MaxTD1= 5 Len=  102
 NBasis=   493 RedAO= T EigKep=  1.36D-03  NBF=   493
 NBsUse=   493 1.00D-06 EigRej= -1.00D+00 NBFU=   493
 ExpMin= 3.51D-02 ExpMax= 2.52D+04 ExpMxC= 3.78D+03 IAcc=3 IRadAn=         5 AccDes= 0.00D+00
 Harris functional with IExCor=20419 and IRadAn=       5 diagonalized for initial guess.
 HarFok:  IExCor=20419 AccDes= 0.00D+00 IRadAn=         5 IDoV= 1 UseB2=F ITyADJ=14
 ICtDFT=  3500011 ScaDFX=  1.000000  1.000000  1.000000  1.000000
 FoFCou: FMM=F IPFlag=           0 FMFlag=      100000 FMFlg1=           0
         NFxFlg=           0 DoJE=T BraDBF=F KetDBF=T FulRan=T
         wScrn=  0.000000 ICntrl=       500 IOpCl=  0 I1Cent=   200000004 NGrid=           0
         NMat0=    1 NMatS0=      1 NMatT0=    0 NMatD0=    1 NMtDS0=    0 NMtDT0=    0
 Symmetry not used in FoFCou.
 Gradient too large for Newton-Raphson -- use scaled steepest descent instead.
 Gradient too large for Newton-Raphson -- use scaled steepest descent instead.
     Accept linear search using points  2 and  3.
 Gradient too large for Newton-Raphson -- use scaled steepest descent instead.
     Minimum is close to point  2 DX=  5.64D-02 DF= -2.51D-05 DXR=  7.46D-02 DFR=  5.59D-03 which will be used.
 Gradient too large for Newton-Raphson -- use scaled steepest descent instead.
     Minimum is close to point  2 DX=  2.97D-02 DF= -1.80D-06 DXR=  4.08D-02 DFR=  1.66D-03 which will be used.
 Gradient too large for Newton-Raphson -- use scaled steepest descent instead.
     Minimum is close to point  2 DX=  1.44D-02 DF= -1.27D-07 DXR=  2.02D-02 DFR=  4.08D-04 which will be used.
 Gradient too large for Newton-Raphson -- use scaled steepest descent instead.
     Minimum is close to point  2 DX=  1.23D-02 DF= -2.96D-08 DXR=  1.73D-02 DFR=  3.00D-04 which will be used.
 LinEq1:  Iter=  0 NonCon=     1 RMS=3.34D-05 Max=2.15D-03 NDo=     1
 AX will form     1 AO Fock derivatives at one time.
 LinEq1:  Iter=  1 NonCon=     1 RMS=2.60D-05 Max=1.05D-03 NDo=     1
 LinEq1:  Iter=  2 NonCon=     1 RMS=3.82D-06 Max=1.76D-04 NDo=     1
 LinEq1:  Iter=  3 NonCon=     1 RMS=2.37D-06 Max=7.89D-05 NDo=     1
 LinEq1:  Iter=  4 NonCon=     1 RMS=7.90D-07 Max=3.84D-05 NDo=     1
 LinEq1:  Iter=  5 NonCon=     1 RMS=5.62D-07 Max=2.41D-05 NDo=     1
 LinEq1:  Iter=  6 NonCon=     1 RMS=3.07D-07 Max=1.03D-05 NDo=     1
 LinEq1:  Iter=  7 NonCon=     1 RMS=1.15D-07 Max=4.59D-06 NDo=     1
 LinEq1:  Iter=  8 NonCon=     1 RMS=6.31D-08 Max=2.43D-06 NDo=     1
 LinEq1:  Iter=  9 NonCon=     1 RMS=3.13D-08 Max=1.17D-06 NDo=     1
 LinEq1:  Iter= 10 NonCon=     1 RMS=1.83D-08 Max=9.23D-07 NDo=     1
 LinEq1:  Iter= 11 NonCon=     1 RMS=8.54D-09 Max=3.71D-07 NDo=     1
 LinEq1:  Iter= 12 NonCon=     0 RMS=4.74D-09 Max=1.69D-07 NDo=     1
 Linear equations converged to 3.109D-08 3.109D-07 after    12 iterations.
     Accept linear search using points  1 and  2.
     Minimum is close to point  2 DX= -2.82D-04 DF= -4.09D-12 DXR=  2.82D-04 DFR=  7.75D-08 which will be used.
 LinEq1:  Iter=  0 NonCon=     1 RMS=5.82D-08 Max=3.63D-06 NDo=     1
 LinEq1:  Iter=  1 NonCon=     1 RMS=3.47D-08 Max=1.04D-06 NDo=     1
 LinEq1:  Iter=  2 NonCon=     1 RMS=1.78D-08 Max=1.08D-06 NDo=     1
 LinEq1:  Iter=  3 NonCon=     1 RMS=7.25D-09 Max=3.82D-07 NDo=     1
 LinEq1:  Iter=  4 NonCon=     1 RMS=4.34D-09 Max=1.79D-07 NDo=     1
 LinEq1:  Iter=  5 NonCon=     1 RMS=1.98D-09 Max=7.69D-08 NDo=     1
 LinEq1:  Iter=  6 NonCon=     1 RMS=9.77D-10 Max=3.89D-08 NDo=     1
 LinEq1:  Iter=  7 NonCon=     1 RMS=5.94D-10 Max=2.75D-08 NDo=     1
 LinEq1:  Iter=  8 NonCon=     1 RMS=3.11D-10 Max=1.03D-08 NDo=     1
 LinEq1:  Iter=  9 NonCon=     1 RMS=1.59D-10 Max=1.05D-08 NDo=     1
 LinEq1:  Iter= 10 NonCon=     1 RMS=8.08D-11 Max=2.76D-09 NDo=     1
 LinEq1:  Iter= 11 NonCon=     1 RMS=4.65D-11 Max=2.08D-09 NDo=     1
 LinEq1:  Iter= 12 NonCon=     0 RMS=2.29D-11 Max=8.32D-10 NDo=     1
 Linear equations converged to 1.288D-10 1.288D-09 after    12 iterations.
 SCF Done:  E(RCAM-B3LYP) =  -3888.83681510     a.u. after    9 cycles
            Convg  =    0.2619D-09                    42 Fock formations.
              S**2 =  0.0000                  -V/T =  1.9904
 DoSCS=F DFT=T ScalE2(SS,OS)=  1.000000  1.000000
 Range of M.O.s used for correlation:     1   493
 NBasis=   493 NAE=   135 NBE=   135 NFC=     0 NFV=     0
 NROrb=    493 NOA=   135 NOB=   135 NVA=   358 NVB=   358
   1 Symmetry operations used in ECPInt.
 ECPInt:  NShTT=   12090 NPrTT=   84901 LenC2=    9404 LenP2D=   33905.
 LDataN:  DoStor=T MaxTD1= 6 Len=  172
 Number of processors reduced to  22 by ecpmxn.
 Symmetrizing basis deriv contribution to polar:
 IMax=3 JMax=2 DiffMx= 0.00D+00
 G2DrvN: will do    40 centers at a time, making    1 passes.
 Calling FoFCou, ICntrl=  3107 FMM=F I1Cent=   0 AccDes= 0.00D+00.
 End of G2Drv F.D. properties file   721 does not exist.
 End of G2Drv F.D. properties file   722 does not exist.
 End of G2Drv F.D. properties file   788 does not exist.
          IDoAtm=001101101111111111111111111111111111111
          Differentiating once with respect to electric field.
                with respect to dipole field.
          Differentiating once with respect to nuclear coordinates.
 CalDSu exits because no D1Ps are significant.
          There are   108 degrees of freedom in the 1st order CPHF.  IDoFFX=6 NUNeed=     3.
    108 vectors produced by pass  0 Test12= 4.83D-14 1.00D-09 XBig12= 1.28D+02 2.53D+00.
 AX will form   108 AO Fock derivatives at one time.
    108 vectors produced by pass  1 Test12= 4.83D-14 1.00D-09 XBig12= 2.04D+01 5.40D-01.
    108 vectors produced by pass  2 Test12= 4.83D-14 1.00D-09 XBig12= 5.09D-01 8.05D-02.
    108 vectors produced by pass  3 Test12= 4.83D-14 1.00D-09 XBig12= 1.54D-02 1.98D-02.
    108 vectors produced by pass  4 Test12= 4.83D-14 1.00D-09 XBig12= 1.45D-04 2.04D-03.
    108 vectors produced by pass  5 Test12= 4.83D-14 1.00D-09 XBig12= 8.15D-07 1.25D-04.
     97 vectors produced by pass  6 Test12= 4.83D-14 1.00D-09 XBig12= 3.88D-09 5.68D-06.
     48 vectors produced by pass  7 Test12= 4.83D-14 1.00D-09 XBig12= 1.68D-11 2.63D-07.
      3 vectors produced by pass  8 Test12= 4.83D-14 1.00D-09 XBig12= 7.64D-14 1.74D-08.
      3 vectors produced by pass  9 Test12= 4.83D-14 1.00D-09 XBig12= 3.29D-16 1.72D-09.
 InvSVY:  IOpt=1 It=  1 EMax= 5.33D-15
 Solved reduced A of dimension   799 with   108 vectors.
 Isotropic polarizability for W=    0.000000      246.02 Bohr**3.
 End of Minotr F.D. properties file   721 does not exist.
 End of Minotr F.D. properties file   722 does not exist.
 End of Minotr F.D. properties file   788 does not exist.

 **********************************************************************

            Population analysis using the SCF density.

 **********************************************************************

 Alpha  occ. eigenvalues -- -101.66038-101.62472-101.59860-101.58902-101.58206
 Alpha  occ. eigenvalues -- -101.56664 -19.30880 -19.30861 -19.25686 -14.44494
 Alpha  occ. eigenvalues --  -14.44444 -14.40730 -14.39768 -14.37483 -14.35452
 Alpha  occ. eigenvalues --  -10.48401 -10.36296 -10.35927 -10.35748 -10.34798
 Alpha  occ. eigenvalues --  -10.33977 -10.31318 -10.30306 -10.29876 -10.28824
 Alpha  occ. eigenvalues --  -10.28780 -10.28448 -10.27254  -9.59247  -9.55675
 Alpha  occ. eigenvalues --   -9.53060  -9.52090  -9.51464  -9.49929  -7.35644
 Alpha  occ. eigenvalues --   -7.34753  -7.34634  -7.32153  -7.31082  -7.31080
 Alpha  occ. eigenvalues --   -7.29500  -7.28522  -7.28495  -7.28488  -7.27901
 Alpha  occ. eigenvalues --   -7.27531  -7.27520  -7.26899  -7.26880  -7.26363
 Alpha  occ. eigenvalues --   -7.25364  -7.25347  -2.16292  -1.28688  -1.16546
 Alpha  occ. eigenvalues --   -1.15976  -1.13277  -1.08008  -1.06392  -1.00821
 Alpha  occ. eigenvalues --   -0.98380  -0.94983  -0.93715  -0.93545  -0.93527
 Alpha  occ. eigenvalues --   -0.92064  -0.91505  -0.88564  -0.87068  -0.82421
 Alpha  occ. eigenvalues --   -0.82127  -0.77016  -0.75657  -0.75441  -0.71282
 Alpha  occ. eigenvalues --   -0.70349  -0.69315  -0.69030  -0.68673  -0.68232
 Alpha  occ. eigenvalues --   -0.68151  -0.66781  -0.64403  -0.63680  -0.62990
 Alpha  occ. eigenvalues --   -0.62160  -0.61538  -0.61112  -0.60037  -0.59826
 Alpha  occ. eigenvalues --   -0.57045  -0.55924  -0.55149  -0.54598  -0.54573
 Alpha  occ. eigenvalues --   -0.53403  -0.52339  -0.51527  -0.50758  -0.49683
 Alpha  occ. eigenvalues --   -0.48780  -0.48543  -0.48342  -0.47695  -0.47307
 Alpha  occ. eigenvalues --   -0.46977  -0.46353  -0.45834  -0.44998  -0.44683
 Alpha  occ. eigenvalues --   -0.44421  -0.44088  -0.43266  -0.41947  -0.41291
 Alpha  occ. eigenvalues --   -0.40688  -0.40254  -0.40107  -0.39768  -0.39263
 Alpha  occ. eigenvalues --   -0.38913  -0.38879  -0.37961  -0.37552  -0.36961
 Alpha  occ. eigenvalues --   -0.35722  -0.35331  -0.34047  -0.32481  -0.30849
 Alpha  occ. eigenvalues --   -0.30409  -0.29919  -0.29341  -0.25149  -0.23658
 Alpha virt. eigenvalues --   -0.05983  -0.00162   0.00560   0.04171   0.04761
 Alpha virt. eigenvalues --    0.05147   0.05467   0.07298   0.08032   0.08881
 Alpha virt. eigenvalues --    0.09415   0.09911   0.10579   0.10884   0.11381
 Alpha virt. eigenvalues --    0.11693   0.12021   0.12365   0.12920   0.13096
 Alpha virt. eigenvalues --    0.13277   0.13484   0.14311   0.14812   0.15205
 Alpha virt. eigenvalues --    0.15268   0.15418   0.16779   0.17610   0.19768
 Alpha virt. eigenvalues --    0.20846   0.21241   0.22414   0.23055   0.23894
 Alpha virt. eigenvalues --    0.24236   0.24914   0.25661   0.26187   0.27059
 Alpha virt. eigenvalues --    0.27749   0.28323   0.29171   0.29931   0.31085
 Alpha virt. eigenvalues --    0.31835   0.33726   0.34177   0.35407   0.36949
 Alpha virt. eigenvalues --    0.39073   0.39332   0.39774   0.40669   0.41151
 Alpha virt. eigenvalues --    0.41955   0.42269   0.42789   0.43140   0.43388
 Alpha virt. eigenvalues --    0.43959   0.44327   0.45486   0.46724   0.47219
 Alpha virt. eigenvalues --    0.47636   0.47879   0.48197   0.48615   0.49249
 Alpha virt. eigenvalues --    0.49685   0.50479   0.50666   0.50828   0.51624
 Alpha virt. eigenvalues --    0.51942   0.52462   0.53086   0.53587   0.54209
 Alpha virt. eigenvalues --    0.55397   0.55583   0.56079   0.56583   0.57223
 Alpha virt. eigenvalues --    0.57617   0.58041   0.59487   0.60881   0.61911
 Alpha virt. eigenvalues --    0.62293   0.62618   0.63717   0.64283   0.65388
 Alpha virt. eigenvalues --    0.65603   0.65849   0.66797   0.67284   0.67515
 Alpha virt. eigenvalues --    0.67908   0.68422   0.69379   0.70460   0.70812
 Alpha virt. eigenvalues --    0.71025   0.71762   0.72247   0.72835   0.74016
 Alpha virt. eigenvalues --    0.74137   0.74736   0.75749   0.76362   0.76456
 Alpha virt. eigenvalues --    0.77369   0.78825   0.79552   0.80557   0.81408
 Alpha virt. eigenvalues --    0.82524   0.83637   0.84736   0.85021   0.86107
 Alpha virt. eigenvalues --    0.86748   0.87026   0.87613   0.88587   0.89103
 Alpha virt. eigenvalues --    0.89290   0.89692   0.90219   0.90368   0.90433
 Alpha virt. eigenvalues --    0.91129   0.91528   0.91678   0.92195   0.92824
 Alpha virt. eigenvalues --    0.93073   0.93469   0.93640   0.94043   0.94579
 Alpha virt. eigenvalues --    0.95070   0.95406   0.95729   0.96111   0.96680
 Alpha virt. eigenvalues --    0.96883   0.97118   0.97531   0.97883   0.98607
 Alpha virt. eigenvalues --    0.99075   0.99901   1.00149   1.00646   1.00955
 Alpha virt. eigenvalues --    1.02008   1.02983   1.04316   1.04865   1.04948
 Alpha virt. eigenvalues --    1.05499   1.06317   1.06792   1.07140   1.07954
 Alpha virt. eigenvalues --    1.08718   1.09252   1.10169   1.10648   1.10841
 Alpha virt. eigenvalues --    1.11793   1.12216   1.12818   1.13802   1.14236
 Alpha virt. eigenvalues --    1.14763   1.15984   1.16767   1.17634   1.18479
 Alpha virt. eigenvalues --    1.18880   1.20535   1.20892   1.21337   1.22849
 Alpha virt. eigenvalues --    1.25340   1.26780   1.28591   1.29668   1.32025
 Alpha virt. eigenvalues --    1.32937   1.34682   1.35908   1.36409   1.37490
 Alpha virt. eigenvalues --    1.39466   1.40041   1.40611   1.41714   1.43351
 Alpha virt. eigenvalues --    1.43541   1.45317   1.46093   1.46790   1.46909
 Alpha virt. eigenvalues --    1.47544   1.48895   1.49340   1.49633   1.49991
 Alpha virt. eigenvalues --    1.50758   1.51498   1.55446   1.56217   1.59793
 Alpha virt. eigenvalues --    1.60043   1.62512   1.63264   1.64314   1.65230
 Alpha virt. eigenvalues --    1.65718   1.66623   1.67772   1.68058   1.68653
 Alpha virt. eigenvalues --    1.69294   1.69488   1.70789   1.71276   1.72496
 Alpha virt. eigenvalues --    1.73347   1.74511   1.76244   1.78228   1.79512
 Alpha virt. eigenvalues --    1.81475   1.82292   1.85273   1.87590   1.88773
 Alpha virt. eigenvalues --    1.91507   1.91705   1.92727   1.95065   1.95236
 Alpha virt. eigenvalues --    1.96327   1.97122   1.98586   1.98727   1.99605
 Alpha virt. eigenvalues --    2.00894   2.02862   2.05061   2.05730   2.06492
 Alpha virt. eigenvalues --    2.08245   2.08477   2.09107   2.09741   2.11069
 Alpha virt. eigenvalues --    2.11530   2.13484   2.14202   2.15765   2.16112
 Alpha virt. eigenvalues --    2.17738   2.18896   2.19786   2.20619   2.21639
 Alpha virt. eigenvalues --    2.23069   2.23309   2.25766   2.26079   2.29001
 Alpha virt. eigenvalues --    2.29328   2.30706   2.31116   2.33569   2.33795
 Alpha virt. eigenvalues --    2.34076   2.34474   2.35147   2.36272   2.36428
 Alpha virt. eigenvalues --    2.38262   2.38927   2.39541   2.40641   2.42580
 Alpha virt. eigenvalues --    2.43416   2.46680   2.47892   2.49391   2.51074
 Alpha virt. eigenvalues --    2.54613   2.60442   2.62010   2.63221   2.63697
 Alpha virt. eigenvalues --    2.64432   2.65718   2.66088   2.66519   2.67221
 Alpha virt. eigenvalues --    2.68439   2.69054   2.69567   2.69844   2.70203
 Alpha virt. eigenvalues --    2.71357   2.71806   2.73721   2.74480   2.75518
 Alpha virt. eigenvalues --    2.75772   2.76507   2.78863   2.79382   2.84496
 Alpha virt. eigenvalues --    2.85313   2.85607   2.86539   2.88053   2.88408
 Alpha virt. eigenvalues --    2.89568   2.90453   2.91595   2.92287   2.94170
 Alpha virt. eigenvalues --    2.96803   2.97888   2.99070   2.99420   2.99734
 Alpha virt. eigenvalues --    3.04168   3.05621   3.11842   3.18669   3.22985
 Alpha virt. eigenvalues --    3.23622   3.24478   3.25246   3.26214   3.36543
 Alpha virt. eigenvalues --    3.38129   3.48938   3.51275   3.55049   3.57981
 Alpha virt. eigenvalues --    3.61142   3.62120   8.94847
          Condensed to atoms (all electrons):
               1          2          3          4          5          6
     1  Li   2.120796   0.217604  -0.035980   0.071560  -0.000003   0.000014
     2  N    0.217604   6.703504   0.339403  -0.080445  -0.000000  -0.000000
     3  C   -0.035980   0.339403   5.102850   0.229349   0.000000  -0.000000
     4  Cl   0.071560  -0.080445   0.229349  16.767596   0.000000  -0.000000
     5  N   -0.000003  -0.000000   0.000000   0.000000   6.578280   0.466298
     6  C    0.000014  -0.000000  -0.000000  -0.000000   0.466298   4.950144
     7  Cl  -0.000001   0.000000   0.000000  -0.000000  -0.053413   0.256074
     8  N   -0.000007   0.000000   0.000000   0.000000  -0.000000  -0.000000
     9  C    0.000042  -0.000000  -0.000000   0.000000  -0.000000   0.000000
    10  Cl   0.000005   0.000000  -0.000000  -0.000000   0.000000  -0.000000
    11  Zn  -0.000390   0.003433   0.001616   0.000005   0.004288   0.000598
    12  N    0.002285  -0.070966  -0.081571   0.003483  -0.000001  -0.000004
    13  C    0.007701  -0.069209   0.550591  -0.054888  -0.000000   0.000000
    14  Cl  -0.000121   0.003138  -0.076412   0.006842  -0.000000  -0.000000
    15  N   -0.000065   0.000001   0.000006   0.000000   0.000012   0.000000
    16  C   -0.000401   0.000002   0.000011  -0.000001  -0.000000  -0.000000
    17  Cl   0.004242  -0.000250  -0.000666  -0.000029  -0.000000   0.000000
    18  N   -0.000429   0.000030  -0.000000   0.000000  -0.090793  -0.081865
    19  C   -0.000013   0.000006  -0.000000  -0.000000  -0.072350   0.567248
    20  Cl   0.000822  -0.000079  -0.000019   0.000000   0.004597  -0.062082
    21  C   -0.008597   0.491137  -0.095969   0.006556  -0.000001  -0.000019
    22  H    0.000490  -0.035891   0.004537  -0.000146  -0.000012  -0.000006
    23  C   -0.000012   0.000000   0.000000  -0.000000   0.000002  -0.000000
    24  H   -0.000000  -0.000000  -0.000000  -0.000000  -0.000001   0.000000
    25  C   -0.000049   0.000000   0.000000   0.000000   0.565499  -0.111073
    26  H    0.000001  -0.000000   0.000000  -0.000000  -0.037293   0.005640
    27  C    0.000000   0.000000  -0.000000   0.000000  -0.000000   0.000000
    28  C   -0.000002  -0.000000   0.000000   0.000000  -0.000000   0.000000
    29  O   -0.000001   0.000000  -0.000000   0.000000   0.000000  -0.000000
    30  C    0.000000  -0.000000   0.000000  -0.000000  -0.000000   0.000000
    31  H    0.000001  -0.000000  -0.000000   0.000000  -0.000000   0.000000
    32  H   -0.000000  -0.000000   0.000000  -0.000000   0.000000   0.000000
    33  H    0.000000  -0.000000  -0.000000  -0.000000   0.000000  -0.000000
    34  H   -0.000000  -0.000000   0.000000   0.000000  -0.000000   0.000000
    35  H   -0.000000   0.000000  -0.000000  -0.000000  -0.000000   0.000000
    36  H   -0.000000  -0.000000   0.000000   0.000000  -0.000000   0.000000
    37  C   -0.000021  -0.000000  -0.000001   0.000000  -0.000000   0.000001
    38  O    0.000020   0.000000  -0.000001   0.000000   0.000000  -0.000000
    39  O   -0.000074  -0.000000  -0.000002   0.000000  -0.000000   0.000004
               7          8          9         10         11         12
     1  Li  -0.000001  -0.000007   0.000042   0.000005  -0.000390   0.002285
     2  N    0.000000   0.000000  -0.000000   0.000000   0.003433  -0.070966
     3  C    0.000000   0.000000  -0.000000  -0.000000   0.001616  -0.081571
     4  Cl  -0.000000   0.000000   0.000000  -0.000000   0.000005   0.003483
     5  N   -0.053413  -0.000000  -0.000000   0.000000   0.004288  -0.000001
     6  C    0.256074  -0.000000   0.000000  -0.000000   0.000598  -0.000004
     7  Cl  16.883404   0.000000   0.000000  -0.000000  -0.000187   0.000000
     8  N    0.000000   6.623087   0.456454  -0.055096   0.004887  -0.000001
     9  C    0.000000   0.456454   4.978548   0.256030   0.002075  -0.000004
    10  Cl  -0.000000  -0.055096   0.256030  16.877205  -0.000468   0.000000
    11  Zn  -0.000187   0.004887   0.002075  -0.000468  10.345767   0.158274
    12  N    0.000000  -0.000001  -0.000004   0.000000   0.158274   6.766383
    13  C   -0.000000  -0.000000  -0.000006   0.000000  -0.019218   0.415505
    14  Cl  -0.000000   0.000002  -0.000020  -0.000001   0.003494  -0.057722
    15  N    0.000000  -0.092074  -0.080656   0.003588   0.196683  -0.004755
    16  C   -0.000000  -0.077176   0.561553  -0.073327  -0.015051  -0.001089
    17  Cl  -0.000000   0.004325  -0.065601   0.007823   0.000516  -0.004103
    18  N    0.003663  -0.000001  -0.000001   0.000000   0.218503  -0.006156
    19  C   -0.075588   0.000000  -0.000000  -0.000000  -0.022979  -0.000591
    20  Cl   0.007661  -0.000000  -0.000000  -0.000000   0.010316  -0.001101
    21  C    0.000000  -0.000000  -0.000000   0.000000  -0.014882   0.466994
    22  H   -0.000002  -0.000000  -0.000000   0.000000  -0.003694  -0.039115
    23  C    0.000000   0.545083  -0.114492   0.006112  -0.017152   0.000090
    24  H   -0.000000  -0.041006   0.005874  -0.000128  -0.001834  -0.000003
    25  C    0.005881   0.000001  -0.000001  -0.000000  -0.010981   0.000078
    26  H   -0.000135   0.000004  -0.000012   0.000000  -0.000612  -0.000006
    27  C   -0.000000   0.000118   0.000029   0.000001   0.000233   0.000000
    28  C   -0.000000  -0.009209   0.000132   0.000039  -0.000805  -0.000001
    29  O    0.000000  -0.000119   0.000006  -0.000000   0.004381  -0.000000
    30  C   -0.000000  -0.000000  -0.000001   0.000000   0.000340  -0.000000
    31  H   -0.000000   0.023195  -0.000722   0.000155   0.000444   0.000000
    32  H   -0.000000   0.000196  -0.000013  -0.000002  -0.000510  -0.000000
    33  H    0.000000   0.000000   0.000000  -0.000000   0.000088  -0.000000
    34  H   -0.000000  -0.000000  -0.000000   0.000000  -0.000041  -0.000000
    35  H   -0.000000   0.000000   0.000000   0.000000  -0.000053   0.000000
    36  H   -0.000000   0.000102   0.000002  -0.000000  -0.000739  -0.000000
    37  C   -0.000000   0.000072  -0.000480   0.000009  -0.019768  -0.000183
    38  O    0.000000  -0.001157   0.000720  -0.000019   0.009692   0.000014
    39  O    0.000000   0.000071   0.000037  -0.000000   0.127124  -0.002563
              13         14         15         16         17         18
     1  Li   0.007701  -0.000121  -0.000065  -0.000401   0.004242  -0.000429
     2  N   -0.069209   0.003138   0.000001   0.000002  -0.000250   0.000030
     3  C    0.550591  -0.076412   0.000006   0.000011  -0.000666  -0.000000
     4  Cl  -0.054888   0.006842   0.000000  -0.000001  -0.000029   0.000000
     5  N   -0.000000  -0.000000   0.000012  -0.000000  -0.000000  -0.090793
     6  C    0.000000  -0.000000   0.000000  -0.000000   0.000000  -0.081865
     7  Cl  -0.000000  -0.000000   0.000000  -0.000000  -0.000000   0.003663
     8  N   -0.000000   0.000002  -0.092074  -0.077176   0.004325  -0.000001
     9  C   -0.000006  -0.000020  -0.080656   0.561553  -0.065601  -0.000001
    10  Cl   0.000000  -0.000001   0.003588  -0.073327   0.007823   0.000000
    11  Zn  -0.019218   0.003494   0.196683  -0.015051   0.000516   0.218503
    12  N    0.415505  -0.057722  -0.004755  -0.001089  -0.004103  -0.006156
    13  C    4.905407   0.288181  -0.000070   0.000032   0.001176   0.000076
    14  Cl   0.288181  16.779029  -0.000212   0.000409  -0.000213   0.000002
    15  N   -0.000070  -0.000212   6.868459   0.405826  -0.060948  -0.006206
    16  C    0.000032   0.000409   0.405826   4.999730   0.244014   0.000120
    17  Cl   0.001176  -0.000213  -0.060948   0.244014  16.877369  -0.000045
    18  N    0.000076   0.000002  -0.006206   0.000120  -0.000045   6.892592
    19  C   -0.000002  -0.000000   0.000090  -0.000001  -0.000001   0.390289
    20  Cl  -0.000007  -0.000015   0.000008   0.000000  -0.000000  -0.064336
    21  C   -0.093056   0.005174  -0.000165  -0.000106   0.001714  -0.000136
    22  H    0.004654  -0.000096  -0.000047  -0.000002  -0.000173   0.002007
    23  C   -0.000000  -0.000036   0.402572  -0.103687   0.006571  -0.000044
    24  H   -0.000000  -0.000001  -0.053762   0.005117  -0.000091  -0.000032
    25  C   -0.000001  -0.000000  -0.000175   0.000006  -0.000007   0.403712
    26  H   -0.000000  -0.000000   0.001238  -0.000029  -0.000004  -0.054699
    27  C   -0.000000   0.000006   0.000011   0.000015  -0.000000  -0.000000
    28  C   -0.000000   0.000094  -0.000249   0.000057   0.000006   0.000000
    29  O   -0.000000   0.000002  -0.000043   0.000017  -0.000000   0.000002
    30  C    0.000000  -0.000001   0.000000  -0.000000   0.000000   0.000000
    31  H    0.000000  -0.000001   0.000517  -0.000192  -0.000017  -0.000000
    32  H    0.000000   0.000005  -0.000010  -0.000032   0.000001  -0.000000
    33  H   -0.000000  -0.000000  -0.000000   0.000000   0.000000   0.000000
    34  H    0.000000   0.000001   0.000000  -0.000000  -0.000000  -0.000000
    35  H    0.000000   0.000000   0.000000  -0.000000   0.000000  -0.000000
    36  H    0.000000  -0.000000  -0.000000  -0.000001  -0.000000  -0.000000
    37  C   -0.000007   0.000871   0.001779  -0.000639   0.000000  -0.000175
    38  O   -0.000101   0.000353  -0.002308   0.001358  -0.000039  -0.000001
    39  O   -0.000670  -0.000173  -0.008509  -0.000036  -0.000028  -0.003079
              19         20         21         22         23         24
     1  Li  -0.000013   0.000822  -0.008597   0.000490  -0.000012  -0.000000
     2  N    0.000006  -0.000079   0.491137  -0.035891   0.000000  -0.000000
     3  C   -0.000000  -0.000019  -0.095969   0.004537   0.000000  -0.000000
     4  Cl  -0.000000   0.000000   0.006556  -0.000146  -0.000000  -0.000000
     5  N   -0.072350   0.004597  -0.000001  -0.000012   0.000002  -0.000001
     6  C    0.567248  -0.062082  -0.000019  -0.000006  -0.000000   0.000000
     7  Cl  -0.075588   0.007661   0.000000  -0.000002   0.000000  -0.000000
     8  N    0.000000  -0.000000  -0.000000  -0.000000   0.545083  -0.041006
     9  C   -0.000000  -0.000000  -0.000000  -0.000000  -0.114492   0.005874
    10  Cl  -0.000000  -0.000000   0.000000   0.000000   0.006112  -0.000128
    11  Zn  -0.022979   0.010316  -0.014882  -0.003694  -0.017152  -0.001834
    12  N   -0.000591  -0.001101   0.466994  -0.039115   0.000090  -0.000003
    13  C   -0.000002  -0.000007  -0.093056   0.004654  -0.000000  -0.000000
    14  Cl  -0.000000  -0.000015   0.005174  -0.000096  -0.000036  -0.000001
    15  N    0.000090   0.000008  -0.000165  -0.000047   0.402572  -0.053762
    16  C   -0.000001   0.000000  -0.000106  -0.000002  -0.103687   0.005117
    17  Cl  -0.000001  -0.000000   0.001714  -0.000173   0.006571  -0.000091
    18  N    0.390289  -0.064336  -0.000136   0.002007  -0.000044  -0.000032
    19  C    5.034137   0.238464  -0.000402   0.001762  -0.000007  -0.000002
    20  Cl   0.238464  16.878010   0.000903  -0.000708   0.000000   0.000000
    21  C   -0.000402   0.000903   4.610775   0.392708  -0.000004  -0.000000
    22  H    0.001762  -0.000708   0.392708   0.513733  -0.000001   0.000000
    23  C   -0.000007   0.000000  -0.000004  -0.000001   4.740717   0.396128
    24  H   -0.000002   0.000000  -0.000000   0.000000   0.396128   0.572181
    25  C   -0.103700   0.006448  -0.000021  -0.000169  -0.000046   0.000029
    26  H    0.005273  -0.000094  -0.000004  -0.000002   0.000626   0.000174
    27  C    0.000000   0.000000   0.000000   0.000000  -0.000152   0.000045
    28  C    0.000000  -0.000000  -0.000000  -0.000000  -0.001098   0.000324
    29  O    0.000000   0.000000  -0.000000   0.000000  -0.002303   0.001052
    30  C    0.000000  -0.000000   0.000000   0.000000   0.000013   0.000009
    31  H   -0.000000   0.000000   0.000000   0.000000  -0.000269  -0.000400
    32  H   -0.000000  -0.000000  -0.000000  -0.000000   0.000202  -0.000006
    33  H   -0.000000   0.000000   0.000000   0.000000   0.000000  -0.000000
    34  H    0.000000  -0.000000   0.000000   0.000000   0.000000   0.000000
    35  H   -0.000000   0.000000  -0.000000  -0.000000   0.000000  -0.000000
    36  H    0.000000  -0.000000  -0.000000  -0.000000   0.000129  -0.000003
    37  C    0.000016  -0.000014   0.000003   0.000000   0.012473   0.001600
    38  O   -0.000000  -0.000000   0.000000   0.000000   0.000001  -0.000832
    39  O   -0.000095  -0.000337   0.000019  -0.000001  -0.001768  -0.000893
              25         26         27         28         29         30
     1  Li  -0.000049   0.000001   0.000000  -0.000002  -0.000001   0.000000
     2  N    0.000000  -0.000000   0.000000  -0.000000   0.000000  -0.000000
     3  C    0.000000   0.000000  -0.000000   0.000000  -0.000000   0.000000
     4  Cl   0.000000  -0.000000   0.000000   0.000000   0.000000  -0.000000
     5  N    0.565499  -0.037293  -0.000000  -0.000000   0.000000  -0.000000
     6  C   -0.111073   0.005640   0.000000   0.000000  -0.000000   0.000000
     7  Cl   0.005881  -0.000135  -0.000000  -0.000000   0.000000  -0.000000
     8  N    0.000001   0.000004   0.000118  -0.009209  -0.000119  -0.000000
     9  C   -0.000001  -0.000012   0.000029   0.000132   0.000006  -0.000001
    10  Cl  -0.000000   0.000000   0.000001   0.000039  -0.000000   0.000000
    11  Zn  -0.010981  -0.000612   0.000233  -0.000805   0.004381   0.000340
    12  N    0.000078  -0.000006   0.000000  -0.000001  -0.000000  -0.000000
    13  C   -0.000001  -0.000000  -0.000000  -0.000000  -0.000000   0.000000
    14  Cl  -0.000000  -0.000000   0.000006   0.000094   0.000002  -0.000001
    15  N   -0.000175   0.001238   0.000011  -0.000249  -0.000043   0.000000
    16  C    0.000006  -0.000029   0.000015   0.000057   0.000017  -0.000000
    17  Cl  -0.000007  -0.000004  -0.000000   0.000006  -0.000000   0.000000
    18  N    0.403712  -0.054699  -0.000000   0.000000   0.000002   0.000000
    19  C   -0.103700   0.005273   0.000000   0.000000   0.000000   0.000000
    20  Cl   0.006448  -0.000094   0.000000  -0.000000   0.000000  -0.000000
    21  C   -0.000021  -0.000004   0.000000  -0.000000  -0.000000   0.000000
    22  H   -0.000169  -0.000002   0.000000  -0.000000   0.000000   0.000000
    23  C   -0.000046   0.000626  -0.000152  -0.001098  -0.002303   0.000013
    24  H    0.000029   0.000174   0.000045   0.000324   0.001052   0.000009
    25  C    4.678843   0.393387  -0.000000  -0.000000   0.000000  -0.000000
    26  H    0.393387   0.575794  -0.000000   0.000000   0.000000  -0.000000
    27  C   -0.000000  -0.000000   4.780974   0.344905   0.225933   0.364973
    28  C   -0.000000   0.000000   0.344905   4.850268  -0.036420  -0.038446
    29  O    0.000000   0.000000   0.225933  -0.036420   8.111129  -0.050637
    30  C   -0.000000  -0.000000   0.364973  -0.038446  -0.050637   4.948711
    31  H   -0.000000  -0.000000  -0.025920   0.363818   0.000470   0.003496
    32  H   -0.000000   0.000000  -0.037562   0.386675   0.002492  -0.004595
    33  H   -0.000000   0.000000  -0.025970   0.004295  -0.000340   0.387209
    34  H   -0.000000   0.000000  -0.030770  -0.006896  -0.001412   0.385963
    35  H   -0.000000  -0.000000  -0.024226  -0.002409   0.003039   0.371779
    36  H   -0.000000  -0.000000   0.400112  -0.038497  -0.031640  -0.046130
    37  C   -0.000044  -0.000007  -0.046832  -0.051281   0.330749  -0.000216
    38  O    0.000000   0.000000  -0.028901   0.228695  -0.083480  -0.001359
    39  O   -0.000136  -0.000020   0.001699   0.001427  -0.058237  -0.000083
              31         32         33         34         35         36
     1  Li   0.000001  -0.000000   0.000000  -0.000000  -0.000000  -0.000000
     2  N   -0.000000  -0.000000  -0.000000  -0.000000   0.000000  -0.000000
     3  C   -0.000000   0.000000  -0.000000   0.000000  -0.000000   0.000000
     4  Cl   0.000000  -0.000000  -0.000000   0.000000  -0.000000   0.000000
     5  N   -0.000000   0.000000   0.000000  -0.000000  -0.000000  -0.000000
     6  C    0.000000   0.000000  -0.000000   0.000000   0.000000   0.000000
     7  Cl  -0.000000  -0.000000   0.000000  -0.000000  -0.000000  -0.000000
     8  N    0.023195   0.000196   0.000000  -0.000000   0.000000   0.000102
     9  C   -0.000722  -0.000013   0.000000  -0.000000   0.000000   0.000002
    10  Cl   0.000155  -0.000002  -0.000000   0.000000   0.000000  -0.000000
    11  Zn   0.000444  -0.000510   0.000088  -0.000041  -0.000053  -0.000739
    12  N    0.000000  -0.000000  -0.000000  -0.000000   0.000000  -0.000000
    13  C    0.000000   0.000000  -0.000000   0.000000   0.000000   0.000000
    14  Cl  -0.000001   0.000005  -0.000000   0.000001   0.000000  -0.000000
    15  N    0.000517  -0.000010  -0.000000   0.000000   0.000000  -0.000000
    16  C   -0.000192  -0.000032   0.000000  -0.000000  -0.000000  -0.000001
    17  Cl  -0.000017   0.000001   0.000000  -0.000000   0.000000  -0.000000
    18  N   -0.000000  -0.000000   0.000000  -0.000000  -0.000000  -0.000000
    19  C   -0.000000  -0.000000  -0.000000   0.000000  -0.000000   0.000000
    20  Cl   0.000000  -0.000000   0.000000  -0.000000   0.000000  -0.000000
    21  C    0.000000  -0.000000   0.000000   0.000000  -0.000000  -0.000000
    22  H    0.000000  -0.000000   0.000000   0.000000  -0.000000  -0.000000
    23  C   -0.000269   0.000202   0.000000   0.000000   0.000000   0.000129
    24  H   -0.000400  -0.000006  -0.000000   0.000000  -0.000000  -0.000003
    25  C   -0.000000  -0.000000  -0.000000  -0.000000  -0.000000  -0.000000
    26  H   -0.000000   0.000000   0.000000   0.000000  -0.000000  -0.000000
    27  C   -0.025920  -0.037562  -0.025970  -0.030770  -0.024226   0.400112
    28  C    0.363818   0.386675   0.004295  -0.006896  -0.002409  -0.038497
    29  O    0.000470   0.002492  -0.000340  -0.001412   0.003039  -0.031640
    30  C    0.003496  -0.004595   0.387209   0.385963   0.371779  -0.046130
    31  H    0.515206  -0.029822  -0.000136   0.000148  -0.000075  -0.004109
    32  H   -0.029822   0.563200   0.000142   0.001022   0.001218   0.002921
    33  H   -0.000136   0.000142   0.545643  -0.027109  -0.023485  -0.003675
    34  H    0.000148   0.001022  -0.027109   0.570144  -0.025517   0.004704
    35  H   -0.000075   0.001218  -0.023485  -0.025517   0.574260  -0.000778
    36  H   -0.004109   0.002921  -0.003675   0.004704  -0.000778   0.559702
    37  C    0.002293   0.002587  -0.000524   0.002786  -0.000028   0.003852
    38  O   -0.035412  -0.028924  -0.000076   0.001714   0.000050   0.002106
    39  O    0.000102  -0.000067  -0.000002  -0.000097   0.000000  -0.000045
              37         38         39
     1  Li  -0.000021   0.000020  -0.000074
     2  N   -0.000000   0.000000  -0.000000
     3  C   -0.000001  -0.000001  -0.000002
     4  Cl   0.000000   0.000000   0.000000
     5  N   -0.000000   0.000000  -0.000000
     6  C    0.000001  -0.000000   0.000004
     7  Cl  -0.000000   0.000000   0.000000
     8  N    0.000072  -0.001157   0.000071
     9  C   -0.000480   0.000720   0.000037
    10  Cl   0.000009  -0.000019  -0.000000
    11  Zn  -0.019768   0.009692   0.127124
    12  N   -0.000183   0.000014  -0.002563
    13  C   -0.000007  -0.000101  -0.000670
    14  Cl   0.000871   0.000353  -0.000173
    15  N    0.001779  -0.002308  -0.008509
    16  C   -0.000639   0.001358  -0.000036
    17  Cl   0.000000  -0.000039  -0.000028
    18  N   -0.000175  -0.000001  -0.003079
    19  C    0.000016  -0.000000  -0.000095
    20  Cl  -0.000014  -0.000000  -0.000337
    21  C    0.000003   0.000000   0.000019
    22  H    0.000000   0.000000  -0.000001
    23  C    0.012473   0.000001  -0.001768
    24  H    0.001600  -0.000832  -0.000893
    25  C   -0.000044   0.000000  -0.000136
    26  H   -0.000007   0.000000  -0.000020
    27  C   -0.046832  -0.028901   0.001699
    28  C   -0.051281   0.228695   0.001427
    29  O    0.330749  -0.083480  -0.058237
    30  C   -0.000216  -0.001359  -0.000083
    31  H    0.002293  -0.035412   0.000102
    32  H    0.002587  -0.028924  -0.000067
    33  H   -0.000524  -0.000076  -0.000002
    34  H    0.002786   0.001714  -0.000097
    35  H   -0.000028   0.000050   0.000000
    36  H    0.003852   0.002106  -0.000045
    37  C    4.131576   0.313553   0.506357
    38  O    0.313553   8.090094  -0.056406
    39  O    0.506357  -0.056406   8.004402
 Mulliken charges:
               1
     1  Li   0.620582
     2  N   -0.501416
     3  C    0.062261
     4  Cl   0.050118
     5  N   -0.365110
     6  C    0.009027
     7  Cl  -0.027357
     8  N   -0.381750
     9  C    0.000509
    10  Cl  -0.021926
    11  Zn   1.036609
    12  N   -0.543171
    13  C    0.063911
    14  Cl   0.047423
    15  N   -0.570535
    16  C    0.053504
    17  Cl  -0.015542
    18  N   -0.602998
    19  C    0.038445
    20  Cl  -0.018435
    21  C    0.237377
    22  H    0.160177
    23  C    0.130352
    24  H    0.116461
    25  C    0.172519
    26  H    0.110781
    27  C    0.101280
    28  C    0.004579
    29  O   -0.414640
    30  C   -0.321025
    31  H    0.187232
    32  H    0.140880
    33  H    0.143940
    34  H    0.125358
    35  H    0.126225
    36  H    0.151986
    37  C    0.809642
    38  O   -0.409354
    39  O   -0.507921
 Sum of Mulliken charges =   0.00000
 Mulliken charges with hydrogens summed into heavy atoms:
               1
     1  Li   0.620582
     2  N   -0.501416
     3  C    0.062261
     4  Cl   0.050118
     5  N   -0.365110
     6  C    0.009027
     7  Cl  -0.027357
     8  N   -0.381750
     9  C    0.000509
    10  Cl  -0.021926
    11  Zn   1.036609
    12  N   -0.543171
    13  C    0.063911
    14  Cl   0.047423
    15  N   -0.570535
    16  C    0.053504
    17  Cl  -0.015542
    18  N   -0.602998
    19  C    0.038445
    20  Cl  -0.018435
    21  C    0.397555
    23  C    0.246813
    25  C    0.283300
    27  C    0.253267
    28  C    0.332692
    29  O   -0.414640
    30  C    0.074498
    37  C    0.809642
    38  O   -0.409354
    39  O   -0.507921
 Electronic spatial extent (au):  <R**2>=          17281.4958
 Charge=              0.0000 electrons
 Dipole moment (field-independent basis, Debye):
    X=             -3.7828    Y=            -13.7237    Z=              1.1406  Tot=             14.2811
 Quadrupole moment (field-independent basis, Debye-Ang):
   XX=           -262.7405   YY=           -165.8739   ZZ=           -147.5777
   XY=              0.8016   XZ=              9.5441   YZ=             66.3238
 Traceless Quadrupole moment (field-independent basis, Debye-Ang):
   XX=            -70.6764   YY=             26.1901   ZZ=             44.4863
   XY=              0.8016   XZ=              9.5441   YZ=             66.3238
 Octapole moment (field-independent basis, Debye-Ang**2):
  XXX=            363.3378  YYY=           -109.5766  ZZZ=             10.2027  XYY=             48.1677
  XXY=             12.9113  XXZ=             30.5335  XZZ=            -18.9174  YZZ=           -102.3545
  YYZ=           -254.8788  XYZ=             -7.9845
 Hexadecapole moment (field-independent basis, Debye-Ang**3):
 XXXX=         -10100.9957 YYYY=          -5170.9291 ZZZZ=          -4676.8776 XXXY=           -632.7680
 XXXZ=           1663.1610 YYYX=           -466.6470 YYYZ=            998.6105 ZZZX=           1352.3723
 ZZZY=            562.3071 XXYY=          -2856.2758 XXZZ=          -2585.4353 YYZZ=          -1152.1616
 XXYZ=            -87.6747 YYXZ=            783.8126 ZZXY=           -229.7916
 N-N= 4.200815907747D+03 E-N=-1.768229398554D+04  KE= 3.926427065764D+03
  Exact polarizability: 257.583  15.544 246.600 -37.468  19.613 233.881
 Approx polarizability: 298.806  15.003 301.119 -38.006  15.904 272.896
   1 Symmetry operations used in ECPInt.
 ECPInt:  NShTT=   12090 NPrTT=   84901 LenC2=    9404 LenP2D=   33905.
 LDataN:  DoStor=T MaxTD1= 7 Len=  274
 Calling FoFJK, ICntrl=    100127 FMM=F ISym2X=0 I1Cent= 0 IOpClX= 0 NMat=1 NMatS=1 NMatT=0.
 -------------------------------------------------------------------
 Center     Atomic                   Forces (Hartrees/Bohr)
 Number     Number              X              Y              Z
 -------------------------------------------------------------------
      1        3          -0.000000000   -0.000000000   -0.000000000
      2        7          -0.000000000   -0.000000000   -0.000000000
      3        6          -0.000000157   -0.000000182   -0.000000006
      4       17           0.000000017    0.000000034   -0.000000005
      5        7          -0.000000000   -0.000000000   -0.000000000
      6        6           0.000000360    0.000000237   -0.000000122
      7       17          -0.000000296   -0.000000037    0.000000084
      8        7          -0.000000000   -0.000000000   -0.000000000
      9        6          -0.000000161    0.000000141    0.000000029
     10       17          -0.000000271   -0.000000050    0.000000031
     11       30           0.000000182    0.000000088   -0.000000057
     12        7          -0.000000052   -0.000000661   -0.000000451
     13        6           0.000000042    0.000000413    0.000000484
     14       17           0.000000028   -0.000000029   -0.000000167
     15        7          -0.000000521    0.000000454    0.000000386
     16        6           0.000000472   -0.000000576   -0.000000416
     17       17          -0.000000055    0.000000146    0.000000090
     18        7          -0.000000888   -0.000000116    0.000000357
     19        6           0.000000586   -0.000000272   -0.000000094
     20       17          -0.000000080    0.000000134   -0.000000044
     21        6           0.000000144    0.000000621    0.000000241
     22        1          -0.000000061   -0.000000061    0.000000064
     23        6           0.000000958   -0.000000078   -0.000000336
     24        1          -0.000000286   -0.000000147   -0.000000024
     25        6           0.000000952    0.000000068   -0.000000321
     26        1          -0.000000436    0.000000144    0.000000050
     27        6           0.000000451    0.000000272    0.000000318
     28        6           0.000000003   -0.000000209   -0.000000659
     29        8          -0.000000267    0.000000068    0.000000334
     30        6          -0.000000139   -0.000000600   -0.000000058
     31        1          -0.000000048    0.000000038    0.000000024
     32        1          -0.000000128   -0.000000111    0.000000228
     33        1           0.000000188    0.000000204    0.000000081
     34        1          -0.000000093    0.000000338   -0.000000056
     35        1           0.000000002    0.000000070    0.000000023
     36        1          -0.000000027   -0.000000100   -0.000000060
     37        6          -0.000000069    0.000000361   -0.000000025
     38        8          -0.000000387    0.000000016    0.000000404
     39        8           0.000000515   -0.000000344   -0.000000577
 -------------------------------------------------------------------
 Cartesian Forces:  Max     0.000000958 RMS     0.000000294

 GradGradGradGradGradGradGradGradGradGradGradGradGradGradGradGradGradGrad
 Berny optimization.
 Search for a local minimum.
 Step number   1 out of a maximum of  127
 All quantities printed in internal units (Hartrees-Bohrs-Radians)
 Second derivative matrix not updated -- analytic derivatives used.
 ITU=  0
     Eigenvalues ---    0.00003   0.00012   0.00013   0.00022   0.00041
     Eigenvalues ---    0.00068   0.00097   0.00147   0.00167   0.00208
     Eigenvalues ---    0.00279   0.00305   0.00332   0.00485   0.00528
     Eigenvalues ---    0.00618   0.00848   0.01121   0.01340   0.01373
     Eigenvalues ---    0.01431   0.02145   0.02628   0.02819   0.02879
     Eigenvalues ---    0.02941   0.02954   0.03071   0.03524   0.03948
     Eigenvalues ---    0.04018   0.04170   0.04801   0.05703   0.06192
     Eigenvalues ---    0.06339   0.06626   0.06774   0.06965   0.07177
     Eigenvalues ---    0.07267   0.07592   0.07956   0.08503   0.09470
     Eigenvalues ---    0.09716   0.09908   0.11258   0.11409   0.12337
     Eigenvalues ---    0.12755   0.13204   0.14230   0.14825   0.16736
     Eigenvalues ---    0.16984   0.17144   0.17732   0.20675   0.20796
     Eigenvalues ---    0.20888   0.20926   0.23376   0.23608   0.24062
     Eigenvalues ---    0.24542   0.26588   0.28084   0.28430   0.28952
     Eigenvalues ---    0.30749   0.34453   0.34862   0.35525   0.36602
     Eigenvalues ---    0.45828   0.48804   0.49141   0.51481   0.55957
     Eigenvalues ---    0.61272   0.66867   0.67239   0.67402   0.74135
     Eigenvalues ---    0.75298   0.83667   0.84885   0.85389   0.85741
     Eigenvalues ---    0.86211   0.88814   0.91492   0.93497   0.94508
     Eigenvalues ---    0.96786   0.97815   0.99236   1.12094   1.12556
     Eigenvalues ---    1.13947   1.15101   1.19014   1.21148   1.69828
 RFO step:  Lambda= 0.00000000D+00 EMin= 2.60227632D-05
 Linear search not attempted -- first point.
 Variable       Old X    -DE/DX   Delta X   Delta X   Delta X     New X
                                 (Linear)    (Quad)   (Total)
    X1       -1.23999  -0.00000   0.00000   0.00000   0.00000  -1.23999
    Y1       -9.52118  -0.00000   0.00000   0.00000   0.00000  -9.52118
    Z1       -6.53361  -0.00000   0.00000   0.00000   0.00000  -6.53361
    X2       -0.53440  -0.00000   0.00000   0.00000   0.00000  -0.53440
    Y2       -6.94584  -0.00000   0.00000   0.00000   0.00000  -6.94584
    Z2       -4.14735  -0.00000   0.00000   0.00000   0.00000  -4.14735
    X3       -1.49822  -0.00000   0.00000  -0.00002  -0.00002  -1.49824
    Y3       -7.78673  -0.00000   0.00000   0.00001   0.00001  -7.78673
    Z3       -1.91026  -0.00000   0.00000  -0.00001  -0.00001  -1.91027
    X4       -2.72855   0.00000   0.00000  -0.00004  -0.00004  -2.72859
    Y4      -10.82225   0.00000   0.00000   0.00001   0.00001 -10.82223
    Z4       -1.79111  -0.00000   0.00000  -0.00001  -0.00001  -1.79113
    X5        4.39971  -0.00000   0.00000   0.00000   0.00000   4.39971
    Y5        4.91149  -0.00000   0.00000   0.00000   0.00000   4.91149
    Z5       -4.57207  -0.00000   0.00000   0.00000   0.00000  -4.57207
    X6        6.15590   0.00000   0.00000   0.00000   0.00000   6.15590
    Y6        3.11130   0.00000   0.00000   0.00000   0.00000   3.11130
    Z6       -4.09608  -0.00000   0.00000  -0.00000  -0.00000  -4.09608
    X7        9.24600  -0.00000   0.00000  -0.00000  -0.00000   9.24599
    Y7        3.35565  -0.00000   0.00000   0.00000   0.00000   3.35565
    Z7       -5.11858   0.00000   0.00000  -0.00000  -0.00000  -5.11858
    X8       -6.28803  -0.00000   0.00000   0.00000   0.00000  -6.28803
    Y8        3.92134  -0.00000   0.00000   0.00000   0.00000   3.92134
    Z8        2.01394  -0.00000   0.00000   0.00000   0.00000   2.01394
    X9       -7.49860  -0.00000   0.00000  -0.00000  -0.00000  -7.49860
    Y9        1.96542   0.00000   0.00000   0.00001   0.00001   1.96542
    Z9        0.89333   0.00000   0.00000  -0.00001  -0.00001   0.89332
   X10      -10.70910  -0.00000   0.00000  -0.00000  -0.00000 -10.70910
   Y10        1.48093  -0.00000   0.00000   0.00001   0.00001   1.48094
   Z10        1.20729   0.00000   0.00000  -0.00002  -0.00002   1.20728
   X11        0.00286   0.00000   0.00000  -0.00000  -0.00000   0.00286
   Y11       -0.09118   0.00000   0.00000   0.00000   0.00000  -0.09118
   Z11       -0.30816  -0.00000   0.00000  -0.00000  -0.00000  -0.30816
   X12       -0.20739  -0.00000   0.00000  -0.00001  -0.00001  -0.20740
   Y12       -3.88911  -0.00000   0.00000   0.00000   0.00000  -3.88911
   Z12       -1.25124  -0.00000   0.00000  -0.00000  -0.00000  -1.25124
   X13       -1.30990   0.00000   0.00000  -0.00002  -0.00002  -1.30993
   Y13       -5.93729   0.00000   0.00000   0.00001   0.00001  -5.93729
   Z13       -0.12684   0.00000   0.00000  -0.00001  -0.00001  -0.12684
   X14       -2.23772   0.00000   0.00000  -0.00005  -0.00005  -2.23776
   Y14       -5.98954  -0.00000   0.00000   0.00002   0.00002  -5.98953
   Z14        2.96540  -0.00000   0.00000  -0.00001  -0.00001   2.96538
   X15       -3.46673  -0.00000   0.00000   0.00000   0.00000  -3.46673
   Y15        1.57950   0.00000   0.00000   0.00001   0.00001   1.57951
   Z15       -0.18329   0.00000   0.00000  -0.00000  -0.00000  -0.18329
   X16       -5.80789   0.00000   0.00000   0.00000   0.00000  -5.80789
   Y16        0.52811  -0.00000   0.00000   0.00001   0.00001   0.52811
   Z16       -0.44652  -0.00000   0.00000  -0.00001  -0.00001  -0.44653
   X17       -6.37408  -0.00000   0.00000  -0.00000  -0.00000  -6.37408
   Y17       -2.11711   0.00000   0.00000   0.00002   0.00002  -2.11710
   Z17       -2.26254   0.00000   0.00000  -0.00002  -0.00002  -2.26256
   X18        2.61113  -0.00000   0.00000  -0.00000  -0.00000   2.61113
   Y18        1.72880  -0.00000   0.00000  -0.00000  -0.00000   1.72880
   Z18       -2.35124   0.00000   0.00000  -0.00000  -0.00000  -2.35124
[...]
 6,0.00008738,0.00022677,-0.00006602,-0.00053024,0.00027134,0.00369490,
 -0.00864302,-0.00134727,-0.00266198,0.01837710,0.05356931,0.,0.,0.,0.,
 0.,0.,-0.00000499,-0.00001309,-0.00000098,0.00000232,0.00000699,0.0000
 0252,0.,0.,0.,0.00000987,0.00000208,-0.00000468,-0.00000508,-0.0000009
 1,0.00000324,0.,0.,0.,-0.00001908,-0.00001307,-0.00000198,0.00000690,0
 .00000086,0.00000118,-0.00000310,-0.00000349,-0.00000861,0.00000287,0.
 00000794,0.00000919,0.00000771,0.00000200,-0.00002153,-0.00000532,-0.0
 0000370,0.00001188,-0.00000200,0.00000777,0.00000897,-0.00000116,-0.00
 000767,-0.00000801,0.00000136,0.00000732,0.00000523,-0.00000443,-0.000
 00394,0.00001143,-0.00000059,0.00000799,-0.00000384,0.00000275,-0.0000
 0517,0.00000511,-0.00000003,-0.00000358,-0.00000505,-0.00000043,0.0000
 0018,-0.00000056,0.00001908,0.00000034,-0.00000291,-0.00000088,-0.0000
 0152,-0.00000009,-0.00000099,0.00000540,-0.00000194,-0.00000004,-0.000
 00002,-0.00000114,0.00758626,-0.00194071,-0.00752218,0.00065259,-0.000
 49873,0.00033190,0.00082038,0.00031081,-0.00380120,-0.19231795,0.01982
 263,0.13634444,0.00005150,0.00008544,0.00004353,0.00000937,0.00001406,
 0.00005398,-0.01635071,0.00411596,0.01798140,-0.00523705,-0.00036641,0
 .00375304,0.20375705,0.,0.,0.,0.,0.,0.,0.00000041,0.00000206,0.,0.0000
 0007,0.00000166,0.00000157,0.,0.,0.,0.00000700,-0.00000395,-0.00000051
 ,-0.00000765,-0.00000130,0.00000229,0.,0.,0.,-0.00000280,0.00000575,0.
 00000205,0.00000416,-0.00000226,0.00000076,-0.00000355,-0.00001528,-0.
 00013048,-0.00000397,0.00001162,0.00001711,-0.00000848,-0.00001044,-0.
 00000095,0.00000699,0.00000564,-0.00000034,0.00001308,-0.00001203,0.00
 000872,0.00000205,-0.00001243,-0.00000753,0.00000021,0.00000274,0.0000
 0261,-0.00001613,-0.00000982,0.00002367,0.00001970,-0.00000888,-0.0000
 0085,-0.00000417,0.00000365,-0.00000023,0.00000292,-0.00000198,-0.0000
 1097,0.00000053,0.00000003,0.00000004,-0.00000040,0.00000559,0.0000114
 1,-0.00000528,0.00001366,-0.00000549,-0.00000045,0.00002059,-0.0000093
 4,0.00000004,0.00000140,-0.00000138,-0.00955393,0.00001385,0.00548032,
 0.00033079,0.00007340,-0.00017641,0.00024681,0.00137095,0.00397663,0.0
 2073574,-0.05142302,-0.01812490,-0.00006630,-0.00007255,0.00005052,-0.
 00012177,-0.00016526,-0.00024571,-0.01151849,0.00158897,0.01341027,0.0
 2240959,-0.00069068,-0.02254280,-0.02183099,0.04991123,0.,0.,0.,0.,0.,
 0.,0.00000711,0.00001491,-0.00000379,-0.00000627,-0.00001721,-0.000002
 34,0.,0.,0.,-0.00002310,0.00000965,0.00000411,0.00001919,0.00000318,-0
 .00000690,0.,0.,0.,0.00004822,-0.00004808,-0.00002643,-0.00005089,-0.0
 0000595,0.00001511,0.00010699,0.00005383,0.00040739,-0.00001381,-0.000
 04108,-0.00004996,0.00001520,0.00002962,-0.00000968,-0.00000277,-0.000
 00942,-0.00000156,-0.00011264,0.00007111,-0.00001322,-0.00000220,0.000
 03665,0.00001902,-0.00000765,-0.00001197,-0.00000811,0.00002568,0.0000
 2158,-0.00007099,-0.00004149,0.00000743,0.00000674,0.00000593,-0.00000
 262,-0.00000599,-0.00000827,0.00001010,0.00004074,0.00000006,0.0000009
 9,0.00000089,0.00006308,-0.00001457,-0.00007631,-0.00000379,-0.0000475
 4,0.00002742,0.00000558,-0.00005100,0.00001731,0.00000076,-0.00000024,
 0.00000295,0.02257122,-0.00553247,-0.01576642,0.00117408,0.00007786,0.
 00003877,-0.00161829,0.00029378,-0.00870495,0.13380064,-0.01747359,-0.
 17832895,-0.00016297,-0.00004221,0.00007274,-0.00058270,-0.00052830,0.
 00011527,-0.00778102,0.00203610,0.00853082,-0.00023890,-0.00020524,-0.
 00069907,-0.14754512,0.01853265,0.19183188,0.,0.,0.,0.,0.,0.,0.0000012
 9,0.00000322,0.00000207,0.00000453,0.00001193,0.00000067,0.,0.,0.,0.00
 002082,-0.00001360,0.00000150,-0.00002049,-0.00000441,0.00000616,0.,0.
 ,0.,-0.00002835,-0.00005557,-0.00001384,0.00001709,0.00001000,-0.00000
 103,-0.00010803,-0.00005942,-0.00047582,0.00001147,0.00005787,0.000057
 58,-0.00003712,-0.00005575,0.00007295,0.00001214,0.00001087,-0.0000357
 4,0.00006284,0.00002765,0.00007374,-0.00003573,-0.00004102,0.00000689,
 0.00000195,0.00003053,0.00001748,-0.00004065,-0.00003518,0.00008096,0.
 00005153,-0.00000484,-0.00000850,-0.00000561,0.00000041,0.00000673,0.0
 0001269,-0.00000982,-0.00005320,0.00000150,-0.00000185,-0.00000156,0.0
 0006683,0.00001380,0.00001041,0.00000694,0.00003799,0.00000057,-0.0000
 0225,0.00005909,-0.00002268,0.00000341,0.00000292,0.00000166,-0.069367
 12,0.06367371,-0.00182821,0.00911604,-0.02059218,-0.00120387,-0.012007
 77,0.02911862,0.01511748,-0.00079457,0.01066280,-0.00117027,0.00142654
 ,0.00005976,-0.00009091,-0.00138321,-0.00092404,-0.00023573,0.00016790
 ,0.00012076,0.00070335,0.00046470,0.00058492,-0.00188915,0.00057291,-0
 .00014057,-0.00014895,0.07861197,0.,0.,0.,0.,0.,0.,0.00000846,0.000018
 91,-0.00000201,-0.00000186,-0.00000735,-0.00000451,0.,0.,0.,-0.0000090
 4,0.00000369,0.00000063,0.00000504,0.00000169,-0.00000224,0.,0.,0.,-0.
 00001110,-0.00000011,0.00001889,-0.00000396,0.00000713,0.00000590,0.00
 004927,-0.00004754,0.00018916,-0.00000524,0.00000684,-0.00002717,-0.00
 002034,-0.00001225,0.00007118,0.00001001,0.00000675,-0.00003510,-0.000
 07703,0.00005977,0.00000029,0.00006137,0.00001902,-0.00000371,0.000000
 18,0.00002665,0.00001577,0.00000607,0.00001916,-0.00002383,-0.00001265
 ,-0.00001084,0.00000860,-0.00000130,0.00000752,-0.00000615,-0.00000124
 ,-0.00000118,0.,0.00000069,-0.00000068,-0.00000176,-0.00001993,-0.0000
 7744,-0.00008433,0.00003232,-0.00000980,-0.00002314,0.00000802,-0.0000
 1895,0.00000573,-0.00000116,0.00000052,-0.00000201,0.07158145,-0.31475
 389,-0.01181898,0.00415261,-0.01218204,-0.00003461,0.00014949,0.004883
 59,-0.00189304,0.00221096,-0.00794406,0.00039241,0.00019452,0.00111549
 ,-0.00004027,-0.00084603,-0.00063265,-0.00089019,0.00015804,0.00059170
 ,0.00008774,0.00037659,0.00093754,0.00160388,-0.00017159,0.00010640,0.
 00031144,-0.07641917,0.32885247,0.,0.,0.,0.,0.,0.,0.00001218,0.0000234
 1,-0.00000850,-0.00000725,-0.00002264,-0.00000446,0.,0.,0.,-0.00002416
 ,0.00002221,-0.00000345,0.00001873,0.00000446,-0.00000689,0.,0.,0.,-0.
 00013855,-0.00004463,0.00004488,0.00002291,0.00001365,0.00000782,0.000
 23078,-0.00004716,0.00076193,-0.00002582,-0.00004504,-0.00009585,0.000
 01496,0.00002931,0.00003487,-0.00000493,-0.00000215,-0.00002437,-0.000
 21585,0.00019689,0.00001545,0.00013152,0.00011338,0.00000712,0.0000008
 9,0.00006323,0.00003381,0.00002618,0.00005458,-0.00011056,-0.00007050,
 -0.00000109,0.00001772,0.00000568,0.00000460,-0.00001174,-0.00001361,0
 .00000497,0.00004974,0.00000107,-0.00000078,-0.00000125,0.00010259,-0.
 00028344,-0.00015680,0.00007916,-0.00000875,-0.00008749,0.00002783,-0.
 00008305,0.00002594,-0.00000378,0.00000072,-0.00000661,-0.00085983,-0.
 00172119,-0.05037145,0.00148870,-0.01233455,0.00007030,0.01198285,-0.0
 2547193,-0.00940685,-0.00923703,0.03051468,0.00199978,0.00028105,-0.00
 014187,0.00067725,-0.00068809,-0.00080177,-0.00057658,0.00004573,-0.00
 073648,0.00098256,-0.00247342,0.00173055,-0.00553014,0.00074278,-0.000
 68679,0.00118072,-0.00487460,0.01240524,0.06321351,0.,0.,0.,0.,0.,0.,-
 0.00010397,-0.00025646,-0.00012829,-0.00024194,-0.00061318,-0.00000326
 ,0.,0.,0.,-0.00099183,0.00063818,0.00007877,0.00075451,0.00015018,-0.0
 0028510,0.,0.,0.,-0.00305880,0.00107229,0.00098262,-0.00026692,-0.0001
 6908,0.00043589,0.01313567,0.00273948,0.02559107,-0.00166199,-0.002515
 46,-0.00326235,0.00212394,0.00280003,-0.00335428,-0.00091202,-0.001325
 68,0.00150196,-0.00982611,0.00064943,-0.00063296,0.00344788,0.00101696
 ,-0.00206150,-0.00022465,0.00066412,0.00055412,0.00053604,0.00114209,-
 0.00436261,-0.00221480,0.00006237,0.00048581,0.00019249,0.00000236,-0.
 00044622,-0.00054376,0.00052507,0.00248987,0.00003956,0.00011188,0.000
 10111,0.00646780,-0.00058127,-0.00203341,0.00000821,-0.00015220,-0.000
 86457,0.00073999,-0.00276389,0.00079428,0.00001222,0.00015343,0.000010
 28,0.01327071,0.02264103,0.01184540,-0.05022778,0.01765115,0.04769058,
 -0.12229208,-0.07063579,-0.03218178,-0.00490681,-0.00171402,0.00175833
 ,0.00136483,-0.00366316,-0.00506652,-0.00006603,-0.00152871,-0.0050233
 5,-0.00043600,-0.00007751,-0.00138918,0.00150144,0.00015840,0.00057264
 ,0.00046497,-0.00039008,0.00155597,-0.00835453,-0.00120091,0.00394998,
 0.75319499,0.,0.,0.,0.,0.,0.,-0.00037068,-0.00083360,0.00014003,0.0001
 4428,0.00045703,0.00017638,0.,0.,0.,0.00050966,-0.00038962,0.00010028,
 -0.00043617,-0.00010644,0.00013231,0.,0.,0.,0.00026830,-0.00231092,-0.
 00187223,0.00000972,-0.00006111,-0.00011407,-0.00043655,0.00149008,-0.
 01304044,-0.00004047,0.00019067,0.00141785,0.00064956,-0.00025435,-0.0
 0252735,-0.00038663,-0.00002126,0.00120689,0.00471999,-0.00174097,0.00
 233090,-0.00472350,-0.00157176,0.00058692,-0.00002635,-0.00065203,-0.0
 0046307,-0.00114142,-0.00120947,0.00214792,0.00124493,0.00008498,-0.00
 030763,-0.00014204,-0.00015554,0.00016259,0.00016565,-0.00002691,-0.00
 056768,-0.00000290,0.00006701,0.00006516,0.00016781,0.00479051,0.00152
 687,-0.00007961,-0.00183208,0.00191418,-0.00024073,0.00141741,-0.00058
 522,0.00011339,0.00003849,0.00013926,0.04249226,-0.00831807,-0.0349323
 1,0.00785224,0.01890557,0.01906429,-0.04762562,-0.20783030,-0.11428651
 ,-0.01089010,0.00060769,0.00541698,0.00387423,-0.00545228,-0.00702850,
 0.00016823,-0.00382949,-0.00465035,-0.00029589,-0.00030074,-0.00203611
 ,0.00101968,-0.00052548,0.00047643,0.00058693,-0.00163571,0.00398275,-
 0.00400309,-0.00007529,0.00028008,0.02691498,0.49543680,0.,0.,0.,0.,0.
 ,0.,-0.00025780,-0.00054455,0.00018336,0.00033196,0.00092285,0.0001393
 4,0.,0.,0.,0.00120311,-0.00060897,-0.00008724,-0.00109667,-0.00020507,
 0.00036515,0.,0.,0.,-0.00020797,0.00156092,0.00045555,0.00188769,0.000
 20117,-0.00052310,-0.00112774,-0.00465054,-0.03399394,0.00061262,0.002
 57634,0.00332339,-0.00139478,-0.00269917,0.00108302,0.00059712,0.00123
 174,-0.00038058,0.00673678,-0.00421615,0.00122941,-0.00181067,-0.00311
 856,-0.00085408,0.00030689,0.00046020,0.00045101,-0.00197252,-0.001352
 81,0.00394543,0.00258453,-0.00039722,-0.00044127,-0.00043011,0.0000968
 4,0.00036824,0.00054640,-0.00055466,-0.00272458,0.00002908,-0.00004863
 ,-0.00004207,-0.00303169,0.00475931,0.00377104,-0.00037959,0.00140769,
 0.00010257,-0.00021512,0.00298218,-0.00128254,0.00005705,0.00007772,-0
 .00009932,0.02907041,-0.02259119,-0.04928612,0.03034150,0.00690563,-0.
 01607635,-0.00578610,-0.09863277,-0.16390691,-0.00121368,-0.00118833,-
 0.00038533,-0.00068741,0.00003413,0.00279128,0.00223518,-0.00519483,-0
 .00465460,0.00010419,-0.00009926,-0.00041364,0.00013918,0.00069607,-0.
 00094528,-0.00039637,0.00016616,0.00155660,-0.00303459,0.00069173,0.00
 154682,-0.34495673,0.26329016,0.74763430,0.,0.,0.,0.,0.,0.,-0.00004040
 ,-0.00007284,0.00009433,0.00012161,0.00031329,0.00001982,0.,0.,0.,0.00
 051789,-0.00031793,-0.00004789,-0.00037810,-0.00007168,0.00014225,0.,0
 .,0.,0.00104368,0.00042463,0.00047198,0.00048425,0.00007563,-0.0002707
 6,-0.00619304,-0.00149058,-0.01223438,0.00066921,0.00083371,0.00120643
 ,-0.00058251,-0.00094589,0.00086740,0.00021641,0.00086381,-0.00016199,
 0.00361072,-0.00109060,-0.00080847,-0.00062954,-0.00005183,0.00046278,
 0.00015445,-0.00024114,-0.00012592,-0.00021395,-0.00056259,0.00210865,
 0.00108801,-0.00000288,-0.00025891,-0.00009057,-0.00000190,0.00022451,
 0.00018538,-0.00026352,-0.00099154,-0.00002563,-0.00003859,-0.00004282
 ,-0.00311121,0.00036039,0.00130898,-0.00006550,0.00046931,-0.00013063,
 -0.00035638,0.00135491,-0.00035898,-0.00000717,-0.00007749,-0.00001420
 ,-0.01052029,-0.00343224,0.00896607,-0.10747672,0.04088574,0.03929868,
 -0.02475360,-0.06205471,-0.02221826,0.00308684,0.00131298,-0.00125300,
 -0.01664726,0.02184642,0.03059999,-0.01164266,0.01695588,0.01931603,0.
 00054445,-0.00000090,0.00122778,-0.00058334,-0.00027943,0.00002122,-0.
 00015822,0.00015214,-0.00135422,0.00112430,-0.00055356,-0.00088676,-0.
 25396949,-0.11394003,0.01619333,0.48530276,0.,0.,0.,0.,0.,0.,0.0002176
 2,0.00044209,-0.00010082,0.00000053,-0.00004758,-0.00006794,0.,0.,0.,0
 .00001126,-0.00001208,-0.00000788,-0.00001114,0.00000562,0.00000760,0.
 ,0.,0.,-0.00008648,0.00093882,0.00035249,0.00015451,0.00001323,0.00000
 317,-0.00074304,-0.00140750,-0.00136637,0.00016520,0.00040292,-0.00006
 611,-0.00080620,-0.00107803,0.00186190,0.00067283,-0.00076661,-0.00169
 882,-0.00046505,-0.00038472,0.00028900,0.00090921,-0.00017320,-0.00063
 894,0.00004765,0.00031720,0.00026145,0.00006416,0.00019425,0.00015521,
 0.00004647,-0.00008919,0.00004155,-0.00000935,0.00007165,0.00001085,0.
 00004789,-0.00014137,-0.00041137,0.00000688,-0.00005282,-0.00004829,0.
 00050469,-0.00087117,0.00155930,-0.00010238,0.00025271,-0.00040506,0.0
 0000015,0.00004176,0.00002281,-0.00000711,-0.00000201,-0.00002442,-0.0
 0486648,-0.03018823,-0.01615300,0.01572439,-0.11860413,-0.04284654,-0.
 04365588,-0.03637330,-0.03170992,0.00055900,-0.00133043,-0.00028135,0.
 01456729,-0.01031965,-0.01827511,-0.00798936,0.01537175,0.00847815,0.0
 0000708,0.00076315,0.00007542,-0.00053608,0.00076592,-0.00068097,0.000
 27755,0.00042535,-0.00037845,-0.00351239,-0.00099954,-0.00232668,-0.08
 296801,-0.15213231,-0.02092274,0.10882315,0.30992844,0.,0.,0.,0.,0.,0.
 ,0.00009755,0.00020357,-0.00005915,-0.00009511,-0.00026870,-0.00004079
 ,0.,0.,0.,-0.00034793,0.00017960,0.00004521,0.00031188,0.00005341,-0.0
 0011399,0.,0.,0.,0.00098973,-0.00120585,-0.00031423,-0.00077006,-0.000
 05488,0.00017570,0.00083382,0.00084681,0.00668470,-0.00007287,-0.00068
 215,-0.00076964,0.00026922,0.00059330,-0.00016060,0.00010764,-0.001292
 23,-0.00030413,-0.00128947,0.00290774,-0.00123566,0.00055170,0.0010898
 0,0.00096451,-0.00010362,-0.00022505,-0.00018700,0.00055071,0.00040478
 ,-0.00110145,-0.00071211,0.00013037,0.00013575,0.00011178,-0.00003762,
 -0.00009964,-0.00013825,0.00017576,0.00070286,-0.00000739,0.00000061,0
 .00000799,-0.00072858,-0.00080734,-0.00372234,0.00016883,-0.00042099,0
 .00029570,0.00003592,-0.00081601,0.00029383,-0.00002124,-0.00003425,0.
 00002847,0.01136417,-0.02938674,-0.02488920,0.02800279,-0.05906675,-0.
 11374344,-0.01063951,-0.02197728,0.01247905,-0.00278506,-0.00079012,0.
 00049452,-0.00000346,0.00021425,0.00734598,0.01353243,-0.01883117,-0.0
 1640097,-0.00058122,0.00059181,-0.00056443,0.00030994,0.00032116,0.000
 10958,0.00004492,-0.00021317,0.00083782,-0.00403507,-0.00084072,-0.001
 44142,0.04038168,-0.00691614,-0.09425491,-0.13108062,0.12145907,0.2419
 8929,0.,0.,0.,0.,0.,0.,-0.00002970,0.00000006,0.00004610,0.00012258,0.
 00034064,0.00001700,0.,0.,0.,0.00074622,-0.00045574,-0.00008097,-0.000
 49044,-0.00010204,0.00018865,0.,0.,0.,0.00072218,-0.00005982,-0.000102
 79,-0.00018495,-0.00006285,-0.00003913,-0.01078348,-0.00104849,-0.0169
 5238,0.00171108,0.00117573,0.00143819,-0.00093222,-0.00100189,0.001395
 90,0.00030370,0.00011526,-0.00047742,0.00016579,0.00130289,-0.00204101
 ,-0.00073830,0.00084948,0.00053949,0.00000090,-0.00053631,-0.00042136,
 0.00000586,-0.00113270,0.00372551,0.00147224,0.00028082,-0.00060625,-0
 .00015598,-0.00012762,0.00048318,0.00020712,-0.00043344,-0.00107293,-0
 .00002478,-0.00006219,-0.00005248,-0.00239185,-0.00019871,-0.00099462,
 -0.00012400,-0.00006766,0.00060490,-0.00059112,0.00181287,-0.00042252,
 0.00005131,-0.00009773,0.00004089,0.00386044,-0.00189052,-0.00174567,0
 .00190859,-0.01225800,-0.00592675,0.01430025,0.01861581,0.01907179,-0.
 00099386,0.00080001,0.00049915,-0.00053133,0.00090683,0.00211755,-0.00
 155150,0.00220546,0.00239339,0.00015216,0.00006165,0.00015254,-0.00030
 004,-0.00013383,-0.00016967,0.00014636,-0.00025046,0.00032308,0.000416
 98,0.00033745,0.00033156,-0.33280013,0.09275209,0.27434697,-0.06207086
 ,0.00334412,0.05505934,0.38808915,0.,0.,0.,0.,0.,0.,0.00021685,0.00040
 267,-0.00019170,-0.00013194,-0.00041606,-0.00011371,0.,0.,0.,-0.000212
 84,-0.00006188,0.00002324,0.00004740,0.00003670,-0.00003508,0.,0.,0.,-
 0.00012659,0.00091581,0.00065349,0.00016584,0.00009463,-0.00001503,0.0
 0058009,-0.00534809,0.00094617,-0.00024369,-0.00075360,-0.00332348,0.0
 0032683,0.00130618,0.00097467,-0.00042017,-0.00109990,-0.00042064,-0.0
 0074193,0.00170147,-0.00016951,0.00167748,-0.00049868,-0.00048254,0.00
 000353,0.00054529,0.00035011,-0.00021951,0.00107433,0.00020395,0.00014
 246,-0.00070908,0.00046910,0.00003236,0.00040268,-0.00031024,-0.000563
 08,-0.00019646,0.00127256,-0.00001485,-0.00006535,-0.00010086,0.000762
 98,-0.00165281,-0.00009103,0.00018069,0.00082035,-0.00048227,0.0002524
 7,0.00003923,0.00004718,-0.00006663,0.00001045,-0.00008133,-0.01172755
 ,-0.00125086,0.00245308,-0.00229557,-0.00083244,-0.00334914,0.03091318
 ,-0.01600512,-0.05503633,0.00328825,-0.00050196,-0.00175826,-0.0006108
 7,0.00068699,0.00068287,0.00019314,0.00034808,0.00031817,0.00000412,0.
 00002373,0.00039068,-0.00014597,0.00013808,0.00001619,-0.00038899,0.00
 052113,-0.00109377,0.00130908,0.00002480,-0.00086876,0.09365652,-0.131
 57590,-0.12040565,-0.00965745,0.02501153,0.01393580,-0.10518362,0.1274
 1320,0.,0.,0.,0.,0.,0.,0.00011520,0.00013466,-0.00028900,-0.00032326,-
 0.00089103,-0.00007870,0.,0.,0.,-0.00115277,0.00135352,-0.00028909,0.0
 0123037,0.00021497,-0.00036529,0.,0.,0.,-0.00082037,0.00056491,0.00086
 604,-0.00136222,-0.00022602,0.00055615,-0.00419060,-0.00103320,-0.0225
 0581,-0.00087260,-0.00380018,-0.00461900,0.00191942,0.00246259,-0.0030
 7748,-0.00059881,-0.00074201,0.00127616,-0.01225497,0.00348216,-0.0037
 1643,0.00355294,0.00378527,-0.00038031,-0.00031147,-0.00018740,-0.0001
 2197,0.00268858,0.00251015,-0.00716015,-0.00398362,0.00131190,-0.00003
 007,0.00066133,-0.00058354,-0.00005489,-0.00081255,0.00028304,0.003149
 19,-0.00003243,0.00009895,0.00008491,0.00318536,-0.00427961,-0.0042495
 5,-0.00001168,-0.00023296,-0.00054444,0.00073756,-0.00447757,0.0012903
 4,-0.00008593,0.00000269,-0.00006317,-0.01136265,-0.00697183,0.0103944
 3,-0.00078691,0.00336776,0.00910805,0.03683482,-0.04925084,-0.06083340
 ,0.00222130,-0.00031685,-0.00070868,0.00098071,-0.00087577,-0.00375634
 ,0.00082853,-0.00008473,-0.00049617,-0.00014655,0.00006043,0.00022490,
 -0.00011743,0.00007263,0.00015352,-0.00007099,0.00045409,-0.00096701,0
 .00287166,-0.00004007,-0.00300463,0.26234802,-0.11578254,-0.39694012,0
 .05154895,0.00467922,-0.01418915,-0.33074331,0.16550785,0.49986767\\0.
 ,0.,0.,0.,0.,0.,0.00000016,0.00000018,0.,-0.00000002,-0.00000003,0.,0.
 ,0.,0.,-0.00000036,-0.00000024,0.00000012,0.00000030,0.00000004,-0.000
 00008,0.,0.,0.,0.00000016,-0.00000014,-0.00000003,0.00000027,0.0000000
 5,-0.00000003,-0.00000018,-0.00000009,0.00000006,0.00000005,0.00000066
 ,0.00000045,-0.00000004,-0.00000041,-0.00000048,-0.00000003,0.00000003
 ,0.00000017,0.00000052,-0.00000045,-0.00000039,-0.00000047,0.00000058,
 0.00000042,0.00000006,-0.00000015,-0.00000009,0.00000089,0.00000012,-0
 .00000036,-0.00000059,0.00000027,0.00000009,0.00000008,-0.00000013,0.0
 0000004,-0.00000014,-0.00000062,-0.00000024,0.00000006,0.00000006,-0.0
 0000006,-0.00000096,0.00000008,0.00000034,0.00000029,0.00000015,0.0000
 0002,-0.00000095,-0.00000007,0.00000032,0.00000044,-0.00000014,-0.0000
 0005,-0.00000045,-0.00000027,-0.00000032,0.,0.00000021,0.00000066,0.00
 000027,-0.00000007,-0.00000033,0.00000014,0.00000060,0.00000006,0.0000
 0005,-0.00000004,-0.00000002,0.00000013,0.00000011,-0.00000023,-0.0000
 0019,-0.00000020,-0.00000008,0.00000009,-0.00000034,0.00000006,0.,-0.0
 0000007,-0.00000002,0.00000003,0.00000010,0.00000006,0.00000007,-0.000
 00036,0.00000002,0.00000039,-0.00000002,-0.00000040,-0.00000051,0.0000
 0034,0.00000058\\\@


      TO SUSPECT YOUR OWN MORTALITY IS TO KNOW THE BEGINNING OF TERROR.
      TO LEARN IRREFUTABLY THAT YOU ARE MORTAL IS TO KNOW THE END
      OF TERROR.

                                                  -- JESSICA
                                                     CHILDREN OF DUNE
                                                     BY FRANK HERBERT
 Job cpu time:       0 days 16 hours 36 minutes 50.6 seconds.
 Elapsed time:       0 days  0 hours 15 minutes 36.9 seconds.
 File lengths (MBytes):  RWF=   1131 Int=      0 D2E=      0 Chk=     18 Scr=      1
 Normal termination of Gaussian 16 at Fri Dec 20 12:57:33 2019.
