 Entering Gaussian System, Link 0=g16
 Input=Zn_PO_TEABr_ring_opened_opt_freq3_re.com
 Output=Zn_PO_TEABr_ring_opened_opt_freq3_re.log
 Initial command:
 /apps/commercial/G16/g16.linda/l1.exe "/scratch/x1711a05/Gau-7787.inp" -scrdir="/scratch/x1711a05/"
 Default linda workers: node3774
 Entering Link 1 = /apps/commercial/G16/g16.linda/l1.exe PID=      7788.
  
 Copyright (c) 1988,1990,1992,1993,1995,1998,2003,2009,2016,
            Gaussian, Inc.  All Rights Reserved.
  
 This is part of the Gaussian(R) 16 program.  It is based on
 the Gaussian(R) 09 system (copyright 2009, Gaussian, Inc.),
 the Gaussian(R) 03 system (copyright 2003, Gaussian, Inc.),
 the Gaussian(R) 98 system (copyright 1998, Gaussian, Inc.),
 the Gaussian(R) 94 system (copyright 1995, Gaussian, Inc.),
 the Gaussian 92(TM) system (copyright 1992, Gaussian, Inc.),
 the Gaussian 90(TM) system (copyright 1990, Gaussian, Inc.),
 the Gaussian 88(TM) system (copyright 1988, Gaussian, Inc.),
 the Gaussian 86(TM) system (copyright 1986, Carnegie Mellon
 University), and the Gaussian 82(TM) system (copyright 1983,
 Carnegie Mellon University). Gaussian is a federally registered
 trademark of Gaussian, Inc.
  
 This software contains proprietary and confidential information,
 including trade secrets, belonging to Gaussian, Inc.
  
 This software is provided under written license and may be
 used, copied, transmitted, or stored only in accord with that
 written license.
  
 The following legend is applicable only to US Government
 contracts under FAR:
  
                    RESTRICTED RIGHTS LEGEND
  
 Use, reproduction and disclosure by the US Government is
 subject to restrictions as set forth in subparagraphs (a)
 and (c) of the Commercial Computer Software - Restricted
 Rights clause in FAR 52.227-19.
  
 Gaussian, Inc.
 340 Quinnipiac St., Bldg. 40, Wallingford CT 06492
  
  
 ---------------------------------------------------------------
 Warning -- This program may not be used in any manner that
 competes with the business of Gaussian, Inc. or will provide
 assistance to any competitor of Gaussian, Inc.  The licensee
 of this program is prohibited from giving any competitor of
 Gaussian, Inc. access to this program.  By using this program,
 the user acknowledges that Gaussian, Inc. is engaged in the
 business of creating and licensing software in the field of
 computational chemistry and represents and warrants to the
 licensee that it is not a competitor of Gaussian, Inc. and that
 it will not use this program in any manner prohibited above.
 ---------------------------------------------------------------
  

 Cite this work as:
 Gaussian 16, Revision A.03,
 M. J. Frisch, G. W. Trucks, H. B. Schlegel, G. E. Scuseria, 
 M. A. Robb, J. R. Cheeseman, G. Scalmani, V. Barone, 
 G. A. Petersson, H. Nakatsuji, X. Li, M. Caricato, A. V. Marenich, 
 J. Bloino, B. G. Janesko, R. Gomperts, B. Mennucci, H. P. Hratchian, 
 J. V. Ortiz, A. F. Izmaylov, J. L. Sonnenberg, D. Williams-Young, 
 F. Ding, F. Lipparini, F. Egidi, J. Goings, B. Peng, A. Petrone, 
 T. Henderson, D. Ranasinghe, V. G. Zakrzewski, J. Gao, N. Rega, 
 G. Zheng, W. Liang, M. Hada, M. Ehara, K. Toyota, R. Fukuda, 
 J. Hasegawa, M. Ishida, T. Nakajima, Y. Honda, O. Kitao, H. Nakai, 
 T. Vreven, K. Throssell, J. A. Montgomery, Jr., J. E. Peralta, 
 F. Ogliaro, M. J. Bearpark, J. J. Heyd, E. N. Brothers, K. N. Kudin, 
 V. N. Staroverov, T. A. Keith, R. Kobayashi, J. Normand, 
 K. Raghavachari, A. P. Rendell, J. C. Burant, S. S. Iyengar, 
 J. Tomasi, M. Cossi, J. M. Millam, M. Klene, C. Adamo, R. Cammi, 
 J. W. Ochterski, R. L. Martin, K. Morokuma, O. Farkas, 
 J. B. Foresman, and D. J. Fox, Gaussian, Inc., Wallingford CT, 2016.
 
 ******************************************
 Gaussian 16:  ES64L-G16RevA.03 25-Dec-2016
                12-Oct-2019 
 ******************************************
 %nprocshared=64
 Will use up to   64 processors via shared memory.
 %mem=64GB
 %chk=Zn_PO_TEABr_ring_opened_opt_freq3_re.chk
 SetLPE:    new flags="-opt 'Tsnet.Node.lindarsharg: ssh'  -nodelist 'node3774' -env GAUSS_MDEF=8589934592 -env GAUSS_EXEDIR="/apps/commercial/G16/g16.linda""
 Will use up to    1 processors via Linda.
 ----------------------------------------------------------------------
 # opt=(calcall,tight,cartesian) freq cam-b3lyp/gen nosymm scf=(qc,maxc
 ycle=1024,vshift=100) pseudo=read
 ----------------------------------------------------------------------
 1/7=10,10=4,18=10,26=3,38=1/1,3;
 2/12=2,15=1,17=6,18=5,29=2,40=1/2;
 3/5=7,11=2,16=1,17=8,25=1,30=1,71=2,74=-40,140=1/1,2,3;
 4//1;
 5/5=2,7=1024,8=3,10=100,38=5/8;
 8/6=4,10=90,11=11/1;
 11/6=1,8=1,9=11,15=111,16=1,31=1/1,2,10;
 10/6=1,31=1/2;
 6/7=2,8=2,9=2,10=2,18=1,28=1/1;
 7/7=1,10=1,25=1,30=1/1,2,3,16;
 1/7=10,10=4,18=10,26=3/3(3);
 2/15=1,29=1/2;
 7/7=1,8=1,9=1,25=1,30=1,44=-1/16;
 99/12=1/99;
 2/15=1,29=1/2;
 3/5=7,6=1,11=2,16=1,17=8,25=1,30=1,71=2,74=-40,82=7,140=1/1,2,3;
 4/5=5,16=3,69=1/1;
 5/5=2,7=1024,8=3,10=100,38=5/8;
 8/6=4,10=90,11=11/1;
 11/6=1,8=1,9=11,15=111,16=1,31=1/1,2,10;
 10/6=1,31=1/2;
 7/7=1,10=1,25=1,30=1/1,2,3,16;
 1/7=10,10=4,18=10,26=3/3(-8);
 2/15=1,29=1/2;
 6/7=2,8=2,9=2,10=2,18=1,19=2,28=1/1;
 7/7=1,8=1,9=1,25=1,30=1,44=-1/16;
 99/12=1/99;
 ------------------------------------
 Zn_PO_TEABr_ring_opened_opt_freq3_re
 ------------------------------------
 Symbolic Z-matrix:
 Charge =  0 Multiplicity = 1
 Li                   -1   -0.65617  -5.03839  -3.45744 
 N                    -1   -0.28279  -3.67558  -2.19468 
 C                    0    -1.20525  -3.92593  -1.22181 
 Cl                   0    -2.15662  -5.37785  -1.35172 
 N                    -1    2.32823   2.59905  -2.41943 
 C                    0     3.34343   1.77528  -2.05753 
 Cl                   0     4.99599   2.11631  -2.44974 
 N                    -1   -3.32748   2.07508   1.06573 
 C                    0    -3.49911   2.10243  -0.27504 
 Cl                   0    -4.84468   2.89016  -1.02867 
 Zn                   0     0.1431   -0.08106   0.07775 
 N                    0    -0.27964  -1.99763  -0.71314 
 C                    0    -1.21328  -2.90966  -0.31159 
 Cl                   0    -2.17457  -2.72258   1.08895 
 N                    0    -1.62704   0.96554   0.0628 
 C                    0    -2.47615   1.4275   -0.89664 
 Cl                   0    -2.23665   1.11633  -2.58145 
 N                    0     1.49979   0.83847  -1.25294 
 C                    0     2.8535    0.70577  -1.34746 
 Cl                   0     3.7027   -0.63972  -0.68428 
 C                    0     0.24257  -2.49604  -1.83449 
 H                    0     1.0153   -1.987    -2.39277 
 C                    0    -2.20372   1.38607   1.21694 
 H                    0    -1.76727   1.14591   2.17693 
 C                    0     1.25221   1.98812  -1.92167 
 H                    0     0.24462   2.36047  -2.04699 
 C                    0     1.77398   0.57816   2.47419 
 C                    0     1.05639   1.53266   3.43558 
 O                    0     0.76843  -0.15146   1.88207 
 C                    0     2.76496  -0.32615   3.2011 
 H                    0     0.28605   2.09917   2.91878 
 H                    0     0.62065   0.99578   4.2766 
 H                    0     3.24159  -0.98973   2.47662 
 H                    0     2.2263   -0.94496   3.92532 
 H                    0     3.5401    0.24206   3.72392 
 H                    0     2.34809   1.19486   1.75263 
 N                    0     2.24356   5.35229   0.48554 
 C                    0     1.92037   5.99523   1.82893 
 C                    0     2.96887   6.9089    2.44631 
 H                    0     1.69723   5.17198   2.5084 
 H                    0     1.0024    6.56526   1.67354 
 H                    0     2.60581   7.1753    3.44209 
 H                    0     3.93965   6.43169   2.57328 
 H                    0     3.10102   7.83904   1.89107 
 C                    0     3.02345   6.31318  -0.38667 
 C                    0     3.4982    5.76258  -1.72265 
 H                    0     3.88156   6.64085   0.19581 
 H                    0     2.36993   7.17842  -0.52461 
 H                    0     3.91703   6.59978  -2.2869 
 H                    0     4.28635   5.01751  -1.60563 
 H                    0     2.71451   5.30469  -2.32544 
 C                    0     0.91973   5.05231  -0.21842 
 C                    0    -0.06909   4.20041   0.55713 
 H                    0     1.18262   4.55481  -1.15037 
 H                    0     0.4895    6.03014  -0.44761 
 H                    0    -0.97224   4.10211  -0.05067 
 H                    0     0.29161   3.18661   0.72595 
 H                    0    -0.37061   4.63911   1.50934 
 C                    0     2.98565   4.03559   0.65593 
 C                    0     4.37642   4.11104   1.25612 
 H                    0     3.00894   3.5831   -0.33394 
 H                    0     2.35694   3.41874   1.2942 
 H                    0     4.80584   3.11003   1.17237 
 H                    0     5.04474   4.7925    0.72541 
 H                    0     4.35816   4.35991   2.3173 
 Br                   0     2.23753   2.91683   4.25461 
 

 GradGradGradGradGradGradGradGradGradGradGradGradGradGradGradGradGradGrad
 Berny optimization.
 Initialization pass.
 No Z-matrix variables, so optimization will use Cartesian coordinates.
 Trust Radius=3.00D-01 FncErr=1.00D-07 GrdErr=1.00D-06 EigMax=2.50D+02 EigMin=1.00D-04
 Number of steps in this run=    208 maximum allowed number of steps=    396.
 GradGradGradGradGradGradGradGradGradGradGradGradGradGradGradGradGradGrad

 Symmetry turned off by external request.
 Stoichiometry    C20H29BrCl6LiN7OZn
 Framework group  C1[X(C20H29BrCl6LiN7OZn)]
 Deg. of freedom   192
 Full point group                 C1      NOp   1
                          Input orientation:                          
 ---------------------------------------------------------------------
 Center     Atomic      Atomic             Coordinates (Angstroms)
 Number     Number       Type             X           Y           Z
 ---------------------------------------------------------------------
      1          3           0       -0.656174   -5.038394   -3.457440
      2          7           0       -0.282792   -3.675582   -2.194684
      3          6           0       -1.205252   -3.925929   -1.221805
      4         17           0       -2.156619   -5.377852   -1.351720
      5          7           0        2.328228    2.599049   -2.419433
      6          6           0        3.343431    1.775280   -2.057532
      7         17           0        4.995985    2.116311   -2.449742
      8          7           0       -3.327483    2.075083    1.065729
      9          6           0       -3.499113    2.102431   -0.275044
     10         17           0       -4.844678    2.890162   -1.028667
     11         30           0        0.143096   -0.081061    0.077751
     12          7           0       -0.279644   -1.997632   -0.713138
     13          6           0       -1.213283   -2.909657   -0.311585
     14         17           0       -2.174567   -2.722579    1.088946
     15          7           0       -1.627037    0.965539    0.062803
     16          6           0       -2.476145    1.427496   -0.896636
     17         17           0       -2.236648    1.116327   -2.581448
     18          7           0        1.499787    0.838474   -1.252936
     19          6           0        2.853495    0.705771   -1.347462
     20         17           0        3.702702   -0.639724   -0.684284
     21          6           0        0.242573   -2.496038   -1.834491
     22          1           0        1.015305   -1.986999   -2.392770
     23          6           0       -2.203724    1.386069    1.216935
     24          1           0       -1.767267    1.145908    2.176926
     25          6           0        1.252213    1.988118   -1.921673
     26          1           0        0.244620    2.360470   -2.046986
     27          6           0        1.773982    0.578158    2.474185
     28          6           0        1.056386    1.532660    3.435578
     29          8           0        0.768430   -0.151460    1.882065
     30          6           0        2.764962   -0.326153    3.201101
     31          1           0        0.286048    2.099173    2.918778
     32          1           0        0.620653    0.995776    4.276597
     33          1           0        3.241590   -0.989734    2.476619
     34          1           0        2.226302   -0.944960    3.925318
     35          1           0        3.540096    0.242057    3.723918
     36          1           0        2.348088    1.194858    1.752633
     37          7           0        2.243555    5.352294    0.485542
     38          6           0        1.920370    5.995231    1.828927
     39          6           0        2.968870    6.908899    2.446313
     40          1           0        1.697227    5.171984    2.508398
     41          1           0        1.002401    6.565255    1.673540
     42          1           0        2.605807    7.175295    3.442087
     43          1           0        3.939649    6.431692    2.573276
     44          1           0        3.101020    7.839037    1.891073
     45          6           0        3.023450    6.313175   -0.386674
     46          6           0        3.498201    5.762579   -1.722652
     47          1           0        3.881562    6.640850    0.195811
     48          1           0        2.369930    7.178419   -0.524605
     49          1           0        3.917030    6.599782   -2.286901
     50          1           0        4.286350    5.017513   -1.605631
     51          1           0        2.714513    5.304692   -2.325436
     52          6           0        0.919726    5.052307   -0.218420
     53          6           0       -0.069089    4.200413    0.557132
     54          1           0        1.182621    4.554807   -1.150366
     55          1           0        0.489501    6.030137   -0.447608
     56          1           0       -0.972243    4.102108   -0.050666
     57          1           0        0.291609    3.186609    0.725946
     58          1           0       -0.370610    4.639111    1.509339
     59          6           0        2.985651    4.035592    0.655933
     60          6           0        4.376419    4.111040    1.256116
     61          1           0        3.008941    3.583101   -0.333938
     62          1           0        2.356938    3.418744    1.294202
     63          1           0        4.805837    3.110028    1.172373
     64          1           0        5.044736    4.792501    0.725414
     65          1           0        4.358161    4.359906    2.317302
     66         35           0        2.237529    2.916831    4.254606
 ---------------------------------------------------------------------
 Rotational constants (GHZ):           0.0815728           0.0450911           0.0425481
 General basis read from cards:  (5D, 7F)
 ======================================================================================================
                                       Pseudopotential Parameters
 ======================================================================================================
  Center     Atomic      Valence      Angular      Power
  Number     Number     Electrons     Momentum     of R      Exponent        Coefficient   SO-Coeffient
 ======================================================================================================
    1          3
                                   No pseudopotential on this center.
    2          7
                                   No pseudopotential on this center.
    3          6
                                   No pseudopotential on this center.
    4         17
                                   No pseudopotential on this center.
    5          7
                                   No pseudopotential on this center.
    6          6
                                   No pseudopotential on this center.
    7         17
                                   No pseudopotential on this center.
    8          7
                                   No pseudopotential on this center.
    9          6
                                   No pseudopotential on this center.
   10         17
                                   No pseudopotential on this center.
   11         30           12
                                      F and up 
                                                     1      386.7379660      -18.00000000    0.00000000
                                                     2       72.8587359     -124.35274030    0.00000000
                                                     2       15.9066170      -30.66018220    0.00000000
                                                     2        4.3502340      -10.63589890    0.00000000
                                                     2        1.2842199       -0.76836230    0.00000000
                                      S - F
                                                     0       19.0867858        3.00000000    0.00000000
                                                     1        5.0231080       22.52342250    0.00000000
                                                     2        1.2701744       48.44659420    0.00000000
                                                     2        1.0671287      -44.55601190    0.00000000
                                                     2        0.9264190       12.99839580    0.00000000
                                      P - F
                                                     0       43.4927750        5.00000000    0.00000000
                                                     1       20.8692669       20.74355890    0.00000000
                                                     2       21.7118378       90.30271580    0.00000000
                                                     2        6.3616915       74.66103160    0.00000000
                                                     2        1.2291195        9.88944240    0.00000000
                                      D - F
                                                     2       13.5851800       -4.84903590    0.00000000
                                                     2        9.8373050        3.69133790    0.00000000
                                                     2        0.8373113       -0.50373190    0.00000000
   12          7
                                   No pseudopotential on this center.
   13          6
                                   No pseudopotential on this center.
   14         17
                                   No pseudopotential on this center.
   15          7
                                   No pseudopotential on this center.
   16          6
                                   No pseudopotential on this center.
   17         17
                                   No pseudopotential on this center.
   18          7
                                   No pseudopotential on this center.
   19          6
                                   No pseudopotential on this center.
   20         17
                                   No pseudopotential on this center.
   21          6
                                   No pseudopotential on this center.
   22          1
                                   No pseudopotential on this center.
   23          6
                                   No pseudopotential on this center.
   24          1
                                   No pseudopotential on this center.
   25          6
                                   No pseudopotential on this center.
   26          1
                                   No pseudopotential on this center.
   27          6
                                   No pseudopotential on this center.
   28          6
                                   No pseudopotential on this center.
   29          8
                                   No pseudopotential on this center.
   30          6
                                   No pseudopotential on this center.
   31          1
                                   No pseudopotential on this center.
   32          1
                                   No pseudopotential on this center.
   33          1
                                   No pseudopotential on this center.
   34          1
                                   No pseudopotential on this center.
   35          1
                                   No pseudopotential on this center.
   36          1
                                   No pseudopotential on this center.
   37          7
                                   No pseudopotential on this center.
   38          6
                                   No pseudopotential on this center.
   39          6
                                   No pseudopotential on this center.
   40          1
                                   No pseudopotential on this center.
   41          1
                                   No pseudopotential on this center.
   42          1
                                   No pseudopotential on this center.
   43          1
                                   No pseudopotential on this center.
   44          1
                                   No pseudopotential on this center.
   45          6
                                   No pseudopotential on this center.
   46          6
                                   No pseudopotential on this center.
   47          1
                                   No pseudopotential on this center.
   48          1
                                   No pseudopotential on this center.
   49          1
                                   No pseudopotential on this center.
   50          1
                                   No pseudopotential on this center.
   51          1
                                   No pseudopotential on this center.
   52          6
                                   No pseudopotential on this center.
   53          6
                                   No pseudopotential on this center.
   54          1
                                   No pseudopotential on this center.
   55          1
                                   No pseudopotential on this center.
   56          1
                                   No pseudopotential on this center.
   57          1
                                   No pseudopotential on this center.
   58          1
                                   No pseudopotential on this center.
   59          6
                                   No pseudopotential on this center.
   60          6
                                   No pseudopotential on this center.
   61          1
                                   No pseudopotential on this center.
   62          1
                                   No pseudopotential on this center.
   63          1
                                   No pseudopotential on this center.
   64          1
                                   No pseudopotential on this center.
   65          1
                                   No pseudopotential on this center.
   66         35
                                   No pseudopotential on this center.
 ======================================================================================================
   705 basis functions,  1449 primitive gaussians,   744 cartesian basis functions
   179 alpha electrons      179 beta electrons
       nuclear repulsion energy      6639.4404864204 Hartrees.
 NAtoms=   66 NActive=   66 NUniq=   66 SFac= 1.00D+00 NAtFMM=   60 NAOKFM=T Big=T
 Integral buffers will be    131072 words long.
 Raffenetti 2 integral format.
 Two-electron integral symmetry is turned off.
 One-electron integrals computed using PRISM.
   1 Symmetry operations used in ECPInt.
 ECPInt:  NShTT=   31626 NPrTT=  185399 LenC2=   24293 LenP2D=   73946.
 LDataN:  DoStor=T MaxTD1= 5 Len=  102
 NBasis=   705 RedAO= T EigKep=  1.37D-03  NBF=   705
 NBsUse=   705 1.00D-06 EigRej= -1.00D+00 NBFU=   705
 ExpMin= 3.51D-02 ExpMax= 5.74D+05 ExpMxC= 5.74D+03 IAcc=3 IRadAn=         5 AccDes= 0.00D+00
 Harris functional with IExCor=20419 and IRadAn=       5 diagonalized for initial guess.
 HarFok:  IExCor=20419 AccDes= 0.00D+00 IRadAn=         5 IDoV= 1 UseB2=F ITyADJ=14
 ICtDFT=  3500011 ScaDFX=  1.000000  1.000000  1.000000  1.000000
 FoFCou: FMM=F IPFlag=           0 FMFlag=      100000 FMFlg1=        2001
         NFxFlg=           0 DoJE=T BraDBF=F KetDBF=T FulRan=T
         wScrn=  0.000000 ICntrl=       500 IOpCl=  0 I1Cent=   200000004 NGrid=           0
         NMat0=    1 NMatS0=      1 NMatT0=    0 NMatD0=    1 NMtDS0=    0 NMtDT0=    0
 Symmetry not used in FoFCou.
 Gradient too large for Newton-Raphson -- use scaled steepest descent instead.
 Gradient too large for Newton-Raphson -- use scaled steepest descent instead.
     Accept linear search using points  2 and  3.
 Gradient too large for Newton-Raphson -- use scaled steepest descent instead.
 Gradient too large for Newton-Raphson -- use scaled steepest descent instead.
     Accept linear search using points  1 and  2.
 Gradient too large for Newton-Raphson -- use scaled steepest descent instead.
 Gradient too large for Newton-Raphson -- use scaled steepest descent instead.
     Accept linear search using points  1 and  2.
 LinEq1:  Iter=  0 NonCon=     1 RMS=1.88D-05 Max=1.45D-03 NDo=     1
 AX will form     1 AO Fock derivatives at one time.
 LinEq1:  Iter=  1 NonCon=     1 RMS=6.98D-06 Max=3.71D-04 NDo=     1
 LinEq1:  Iter=  2 NonCon=     1 RMS=2.07D-06 Max=1.02D-04 NDo=     1
 LinEq1:  Iter=  3 NonCon=     1 RMS=1.11D-06 Max=7.65D-05 NDo=     1
 LinEq1:  Iter=  4 NonCon=     1 RMS=4.82D-07 Max=2.49D-05 NDo=     1
 LinEq1:  Iter=  5 NonCon=     1 RMS=2.47D-07 Max=1.26D-05 NDo=     1
 LinEq1:  Iter=  6 NonCon=     1 RMS=1.58D-07 Max=8.53D-06 NDo=     1
 LinEq1:  Iter=  7 NonCon=     1 RMS=7.12D-08 Max=2.85D-06 NDo=     1
 LinEq1:  Iter=  8 NonCon=     1 RMS=3.68D-08 Max=1.77D-06 NDo=     1
 LinEq1:  Iter=  9 NonCon=     1 RMS=1.57D-08 Max=8.16D-07 NDo=     1
 LinEq1:  Iter= 10 NonCon=     1 RMS=1.01D-08 Max=5.89D-07 NDo=     1
 LinEq1:  Iter= 11 NonCon=     0 RMS=4.45D-09 Max=1.80D-07 NDo=     1
 Linear equations converged to 4.260D-08 4.260D-07 after    11 iterations.
     Accept linear search using points  1 and  2.
     Minimum is close to point  2 DX= -1.40D-04 DF= -9.09D-13 DXR=  1.40D-04 DFR=  2.36D-08 which will be used.
 LinEq1:  Iter=  0 NonCon=     1 RMS=2.70D-08 Max=2.18D-06 NDo=     1
 LinEq1:  Iter=  1 NonCon=     1 RMS=1.71D-08 Max=2.02D-06 NDo=     1
 LinEq1:  Iter=  2 NonCon=     1 RMS=8.26D-09 Max=6.53D-07 NDo=     1
 LinEq1:  Iter=  3 NonCon=     1 RMS=3.69D-09 Max=3.65D-07 NDo=     1
 LinEq1:  Iter=  4 NonCon=     1 RMS=1.99D-09 Max=1.79D-07 NDo=     1
 LinEq1:  Iter=  5 NonCon=     1 RMS=1.26D-09 Max=7.93D-08 NDo=     1
 LinEq1:  Iter=  6 NonCon=     1 RMS=5.52D-10 Max=3.18D-08 NDo=     1
 LinEq1:  Iter=  7 NonCon=     1 RMS=3.21D-10 Max=1.63D-08 NDo=     1
 LinEq1:  Iter=  8 NonCon=     1 RMS=1.60D-10 Max=8.47D-09 NDo=     1
 LinEq1:  Iter=  9 NonCon=     1 RMS=7.50D-11 Max=4.84D-09 NDo=     1
 LinEq1:  Iter= 10 NonCon=     1 RMS=4.42D-11 Max=3.12D-09 NDo=     1
 LinEq1:  Iter= 11 NonCon=     0 RMS=1.68D-11 Max=6.98D-10 NDo=     1
 Linear equations converged to 8.792D-11 8.792D-10 after    11 iterations.
 Restarting incremental Fock formation.
 QCLLim is confused:  Bigger=T Turned=T
 NLin=  3 IMin12=  1  2 I12=  0  2 IX=  1 XLMin= 0.000D+00 XLMax= 0.000D+00
 X = 0.000D+00 1.000D+00 2.000D+00
 DE= 0.000D+00 0.000D+00 8.731D-11
 LinEq1:  Iter=  0 NonCon=     1 RMS=1.37D-08 Max=1.10D-06 NDo=     1
 LinEq1:  Iter=  1 NonCon=     1 RMS=8.66D-09 Max=1.02D-06 NDo=     1
 LinEq1:  Iter=  2 NonCon=     1 RMS=4.17D-09 Max=3.30D-07 NDo=     1
 LinEq1:  Iter=  3 NonCon=     1 RMS=1.87D-09 Max=1.85D-07 NDo=     1
 LinEq1:  Iter=  4 NonCon=     1 RMS=1.01D-09 Max=9.05D-08 NDo=     1
 LinEq1:  Iter=  5 NonCon=     1 RMS=6.35D-10 Max=4.00D-08 NDo=     1
 LinEq1:  Iter=  6 NonCon=     1 RMS=2.79D-10 Max=1.61D-08 NDo=     1
 LinEq1:  Iter=  7 NonCon=     1 RMS=1.62D-10 Max=8.24D-09 NDo=     1
 LinEq1:  Iter=  8 NonCon=     1 RMS=8.08D-11 Max=4.28D-09 NDo=     1
 LinEq1:  Iter=  9 NonCon=     1 RMS=3.79D-11 Max=2.45D-09 NDo=     1
 LinEq1:  Iter= 10 NonCon=     1 RMS=2.23D-11 Max=1.58D-09 NDo=     1
 LinEq1:  Iter= 11 NonCon=     0 RMS=8.48D-12 Max=3.51D-10 NDo=     1
 Linear equations converged to 4.442D-11 4.442D-10 after    11 iterations.
 QCLLim is confused:  Bigger=T Turned=T
 NLin=  3 IMin12=  1  2 I12=  0  2 IX=  1 XLMin= 0.000D+00 XLMax= 0.000D+00
 X = 0.000D+00 1.000D+00 2.000D+00
 DE= 0.000D+00 7.094D-11 1.910D-10
 QCLLim is confused:  Bigger=T Turned=T
 NLin=  4 IMin12=  1  2 I12=  0  2 IX=  1 XLMin= 0.000D+00 XLMax= 0.000D+00
 X = 0.000D+00 1.000D+00 2.000D+00 4.000D+00
 DE= 0.000D+00 7.094D-11 1.910D-10 2.001D-10
 QCLLim is confused:  Bigger=T Turned=T
 NLin=  5 IMin12=  1  2 I12=  0  2 IX=  1 XLMin= 0.000D+00 XLMax= 0.000D+00
 X = 0.000D+00 1.000D+00 2.000D+00 4.000D+00 8.000D+00
 DE= 0.000D+00 7.094D-11 1.910D-10 2.001D-10 7.112D-10
 QCLLim is confused:  Bigger=T Turned=T
 NLin=  6 IMin12=  1  2 I12=  0  2 IX=  1 XLMin= 0.000D+00 XLMax= 0.000D+00
 X = 0.000D+00 1.000D+00 2.000D+00 4.000D+00 8.000D+00 1.600D+01
 DE= 0.000D+00 7.094D-11 1.910D-10 2.001D-10 7.112D-10 3.038D-09
 SCF Done:  E(RCAM-B3LYP) =  -6643.24657039     a.u. after   10 cycles
            Convg  =    0.4052D-05                    61 Fock formations.
              S**2 =  0.0000                  -V/T =  1.9946
 DoSCS=F DFT=T ScalE2(SS,OS)=  1.000000  1.000000
 Range of M.O.s used for correlation:     1   705
 NBasis=   705 NAE=   179 NBE=   179 NFC=     0 NFV=     0
 NROrb=    705 NOA=   179 NOB=   179 NVA=   526 NVB=   526
   1 Symmetry operations used in ECPInt.
 ECPInt:  NShTT=   31626 NPrTT=  185399 LenC2=   24293 LenP2D=   73946.
 LDataN:  DoStor=T MaxTD1= 6 Len=  172
 Number of processors reduced to  12 by ecpmxn.
 Symmetrizing basis deriv contribution to polar:
 IMax=3 JMax=2 DiffMx= 0.00D+00
 G2DrvN: will do    67 centers at a time, making    1 passes.
 Calling FoFCou, ICntrl=  3107 FMM=T I1Cent=   0 AccDes= 0.00D+00.
 End of G2Drv F.D. properties file   721 does not exist.
 End of G2Drv F.D. properties file   722 does not exist.
 End of G2Drv F.D. properties file   788 does not exist.
          IDoAtm=00110110111111111111111111111111111111111111111111
          IDoAtm=1111111111111111
          Differentiating once with respect to electric field.
                with respect to dipole field.
          Differentiating once with respect to nuclear coordinates.
 CalDSu exits because no D1Ps are significant.
          There are   189 degrees of freedom in the 1st order CPHF.  IDoFFX=6 NUNeed=     3.
    189 vectors produced by pass  0 Test12= 9.42D-14 1.00D-09 XBig12= 1.69D+02 2.42D+00.
 AX will form    96 AO Fock derivatives at one time.
    189 vectors produced by pass  1 Test12= 9.42D-14 1.00D-09 XBig12= 2.10D+01 5.69D-01.
    189 vectors produced by pass  2 Test12= 9.42D-14 1.00D-09 XBig12= 5.34D-01 9.25D-02.
    189 vectors produced by pass  3 Test12= 9.42D-14 1.00D-09 XBig12= 1.28D-02 2.48D-02.
    189 vectors produced by pass  4 Test12= 9.42D-14 1.00D-09 XBig12= 1.27D-04 2.51D-03.
    189 vectors produced by pass  5 Test12= 9.42D-14 1.00D-09 XBig12= 7.44D-07 1.24D-04.
    114 vectors produced by pass  6 Test12= 9.42D-14 1.00D-09 XBig12= 3.44D-09 8.09D-06.
     38 vectors produced by pass  7 Test12= 9.42D-14 1.00D-09 XBig12= 1.49D-11 3.91D-07.
      3 vectors produced by pass  8 Test12= 9.42D-14 1.00D-09 XBig12= 6.13D-14 2.89D-08.
      3 vectors produced by pass  9 Test12= 9.42D-14 1.00D-09 XBig12= 2.44D-16 1.19D-09.
 InvSVY:  IOpt=1 It=  1 EMax= 1.42D-14
 Solved reduced A of dimension  1292 with   189 vectors.
 Isotropic polarizability for W=    0.000000      344.89 Bohr**3.
 End of Minotr F.D. properties file   721 does not exist.
 End of Minotr F.D. properties file   722 does not exist.
 End of Minotr F.D. properties file   788 does not exist.

 **********************************************************************

            Population analysis using the SCF density.

 **********************************************************************

 Alpha  occ. eigenvalues -- -482.71097-101.64789-101.60190-101.59192-101.58875
 Alpha  occ. eigenvalues -- -101.57778-101.55943 -61.79298 -56.36255 -56.35962
 Alpha  occ. eigenvalues --  -56.35940 -19.11725 -14.55301 -14.42512 -14.42035
 Alpha  occ. eigenvalues --  -14.39757 -14.37492 -14.37350 -14.34148 -10.34311
 Alpha  occ. eigenvalues --  -10.34104 -10.34071 -10.33661 -10.33160 -10.32190
 Alpha  occ. eigenvalues --  -10.31822 -10.30859 -10.30213 -10.29347 -10.28512
 Alpha  occ. eigenvalues --  -10.28128 -10.28033 -10.27639 -10.27627 -10.27604
 Alpha  occ. eigenvalues --  -10.27237 -10.26794 -10.25391 -10.20433  -9.58011
 Alpha  occ. eigenvalues --   -9.53370  -9.52368  -9.52094  -9.50947  -9.49205
 Alpha  occ. eigenvalues --   -8.57487  -7.34391  -7.33532  -7.33398  -7.29853
 Alpha  occ. eigenvalues --   -7.28812  -7.28776  -7.28774  -7.28518  -7.27805
 Alpha  occ. eigenvalues --   -7.27793  -7.27546  -7.27519  -7.27373  -7.26390
 Alpha  occ. eigenvalues --   -7.26387  -7.25630  -7.24647  -7.24630  -6.59125
 Alpha  occ. eigenvalues --   -6.58063  -6.58031  -2.71299  -2.71004  -2.70978
 Alpha  occ. eigenvalues --   -2.70136  -2.70135  -2.14696  -1.11998  -1.11168
 Alpha  occ. eigenvalues --   -1.07410  -1.04889  -1.00016  -0.99144  -0.96279
 Alpha  occ. eigenvalues --   -0.94543  -0.93353  -0.92305  -0.91451  -0.90939
 Alpha  occ. eigenvalues --   -0.90242  -0.89608  -0.88940  -0.88194  -0.85805
 Alpha  occ. eigenvalues --   -0.85761  -0.84100  -0.80036  -0.77690  -0.76635
 Alpha  occ. eigenvalues --   -0.76398  -0.76228  -0.74480  -0.73968  -0.72095
 Alpha  occ. eigenvalues --   -0.67782  -0.67699  -0.65451  -0.64655  -0.64214
 Alpha  occ. eigenvalues --   -0.63850  -0.63249  -0.62975  -0.62729  -0.62094
 Alpha  occ. eigenvalues --   -0.61592  -0.61124  -0.60839  -0.60644  -0.59791
 Alpha  occ. eigenvalues --   -0.59144  -0.58526  -0.57600  -0.56188  -0.55181
 Alpha  occ. eigenvalues --   -0.53660  -0.53432  -0.53059  -0.52574  -0.51618
 Alpha  occ. eigenvalues --   -0.51556  -0.50459  -0.49774  -0.49279  -0.49167
 Alpha  occ. eigenvalues --   -0.48695  -0.48416  -0.48092  -0.47904  -0.47718
 Alpha  occ. eigenvalues --   -0.47155  -0.47078  -0.47064  -0.46635  -0.45820
 Alpha  occ. eigenvalues --   -0.45618  -0.45496  -0.45393  -0.44800  -0.44310
 Alpha  occ. eigenvalues --   -0.43930  -0.43494  -0.43313  -0.43104  -0.42765
 Alpha  occ. eigenvalues --   -0.42621  -0.42520  -0.40981  -0.40142  -0.39932
 Alpha  occ. eigenvalues --   -0.39552  -0.39339  -0.38889  -0.38212  -0.38093
 Alpha  occ. eigenvalues --   -0.37756  -0.37306  -0.36966  -0.36416  -0.35654
 Alpha  occ. eigenvalues --   -0.35469  -0.33895  -0.33160  -0.32773  -0.32443
 Alpha  occ. eigenvalues --   -0.32323  -0.30443  -0.29207  -0.27984  -0.27859
 Alpha  occ. eigenvalues --   -0.26883  -0.25670  -0.24836  -0.22390
 Alpha virt. eigenvalues --   -0.04844   0.01073   0.01797   0.05936   0.06523
 Alpha virt. eigenvalues --    0.06897   0.07464   0.08325   0.09514   0.09991
 Alpha virt. eigenvalues --    0.10328   0.10604   0.11089   0.11174   0.11933
 Alpha virt. eigenvalues --    0.12193   0.12434   0.12458   0.13019   0.13208
 Alpha virt. eigenvalues --    0.13500   0.13530   0.13955   0.14387   0.14518
 Alpha virt. eigenvalues --    0.14840   0.14926   0.15193   0.15558   0.15746
 Alpha virt. eigenvalues --    0.16063   0.16275   0.16700   0.17530   0.18338
 Alpha virt. eigenvalues --    0.18652   0.19392   0.19596   0.19695   0.20083
 Alpha virt. eigenvalues --    0.20627   0.21214   0.21805   0.22032   0.22364
 Alpha virt. eigenvalues --    0.23171   0.23593   0.24446   0.24516   0.24889
 Alpha virt. eigenvalues --    0.25528   0.25786   0.26078   0.26654   0.26891
 Alpha virt. eigenvalues --    0.27444   0.27677   0.27790   0.28077   0.28711
 Alpha virt. eigenvalues --    0.28827   0.29312   0.29810   0.30817   0.31083
 Alpha virt. eigenvalues --    0.32294   0.33118   0.33369   0.33723   0.33870
 Alpha virt. eigenvalues --    0.35074   0.35777   0.36714   0.37450   0.38398
 Alpha virt. eigenvalues --    0.39062   0.40713   0.41210   0.41497   0.42196
 Alpha virt. eigenvalues --    0.42637   0.43304   0.43688   0.45068   0.45244
 Alpha virt. eigenvalues --    0.45950   0.47128   0.47677   0.48034   0.48234
 Alpha virt. eigenvalues --    0.48434   0.48645   0.49719   0.49768   0.50057
 Alpha virt. eigenvalues --    0.50417   0.50817   0.50970   0.51324   0.51529
 Alpha virt. eigenvalues --    0.51644   0.52369   0.53307   0.53522   0.53936
 Alpha virt. eigenvalues --    0.54151   0.54453   0.54910   0.55111   0.55621
 Alpha virt. eigenvalues --    0.55678   0.56430   0.56678   0.57214   0.57467
 Alpha virt. eigenvalues --    0.58175   0.58412   0.58975   0.59430   0.60587
 Alpha virt. eigenvalues --    0.60953   0.62114   0.62524   0.63019   0.63438
 Alpha virt. eigenvalues --    0.63654   0.63799   0.64369   0.64784   0.65118
 Alpha virt. eigenvalues --    0.65679   0.65800   0.66288   0.66902   0.67379
 Alpha virt. eigenvalues --    0.67610   0.68001   0.68706   0.69166   0.69515
 Alpha virt. eigenvalues --    0.70006   0.70160   0.70582   0.71052   0.71609
 Alpha virt. eigenvalues --    0.71705   0.72339   0.73138   0.73418   0.73521
 Alpha virt. eigenvalues --    0.74580   0.74963   0.75239   0.75609   0.75789
 Alpha virt. eigenvalues --    0.76798   0.77543   0.77733   0.78506   0.78977
 Alpha virt. eigenvalues --    0.80143   0.80206   0.80652   0.81344   0.81615
 Alpha virt. eigenvalues --    0.82603   0.83512   0.83865   0.84493   0.85316
 Alpha virt. eigenvalues --    0.85921   0.86524   0.86866   0.87609   0.87802
 Alpha virt. eigenvalues --    0.88363   0.88685   0.89050   0.89553   0.90026
 Alpha virt. eigenvalues --    0.90093   0.90322   0.90496   0.91119   0.91500
 Alpha virt. eigenvalues --    0.91887   0.92260   0.92425   0.92561   0.92798
 Alpha virt. eigenvalues --    0.93204   0.93560   0.93586   0.93931   0.94607
 Alpha virt. eigenvalues --    0.94740   0.94949   0.95055   0.95400   0.95520
 Alpha virt. eigenvalues --    0.95765   0.95910   0.96293   0.96456   0.97230
 Alpha virt. eigenvalues --    0.97598   0.97985   0.98385   0.98636   0.98802
 Alpha virt. eigenvalues --    0.99291   0.99793   1.00399   1.00665   1.01038
 Alpha virt. eigenvalues --    1.01845   1.02251   1.02362   1.02826   1.03074
 Alpha virt. eigenvalues --    1.03563   1.03687   1.04198   1.04941   1.05262
 Alpha virt. eigenvalues --    1.05702   1.05772   1.06081   1.06633   1.07123
 Alpha virt. eigenvalues --    1.07377   1.07650   1.08845   1.09125   1.09628
 Alpha virt. eigenvalues --    1.09831   1.10074   1.10466   1.10789   1.10987
 Alpha virt. eigenvalues --    1.12110   1.12396   1.12969   1.13536   1.13814
 Alpha virt. eigenvalues --    1.14436   1.15669   1.16047   1.16591   1.17447
 Alpha virt. eigenvalues --    1.17637   1.18203   1.19282   1.19791   1.20682
 Alpha virt. eigenvalues --    1.21118   1.22373   1.23516   1.23802   1.24716
 Alpha virt. eigenvalues --    1.25726   1.27059   1.28554   1.28933   1.29771
 Alpha virt. eigenvalues --    1.30905   1.32021   1.33994   1.34314   1.35741
 Alpha virt. eigenvalues --    1.36489   1.36848   1.40020   1.40497   1.42253
 Alpha virt. eigenvalues --    1.42639   1.42732   1.43594   1.44357   1.44837
 Alpha virt. eigenvalues --    1.45108   1.45893   1.47314   1.48212   1.48568
 Alpha virt. eigenvalues --    1.48798   1.48963   1.49607   1.50598   1.50801
 Alpha virt. eigenvalues --    1.51552   1.51842   1.52469   1.54309   1.56626
 Alpha virt. eigenvalues --    1.58027   1.59979   1.60245   1.60928   1.62763
 Alpha virt. eigenvalues --    1.63170   1.64017   1.64883   1.65342   1.65676
 Alpha virt. eigenvalues --    1.65995   1.66908   1.67313   1.67885   1.68617
 Alpha virt. eigenvalues --    1.68663   1.70071   1.70255   1.70810   1.71701
 Alpha virt. eigenvalues --    1.72696   1.73085   1.73914   1.74580   1.75154
 Alpha virt. eigenvalues --    1.76209   1.76422   1.77089   1.78383   1.79195
 Alpha virt. eigenvalues --    1.79995   1.82480   1.83426   1.86370   1.87036
 Alpha virt. eigenvalues --    1.88132   1.88826   1.91643   1.93183   1.94095
 Alpha virt. eigenvalues --    1.94409   1.94774   1.95125   1.96575   1.97035
 Alpha virt. eigenvalues --    1.97240   1.98137   1.99468   1.99658   2.00530
 Alpha virt. eigenvalues --    2.01708   2.03658   2.03862   2.04650   2.05704
 Alpha virt. eigenvalues --    2.06621   2.07508   2.07681   2.08874   2.09551
 Alpha virt. eigenvalues --    2.09739   2.10249   2.10989   2.11134   2.11571
 Alpha virt. eigenvalues --    2.11889   2.12517   2.12931   2.13681   2.14214
 Alpha virt. eigenvalues --    2.14577   2.14865   2.15479   2.15721   2.15745
 Alpha virt. eigenvalues --    2.16697   2.17175   2.17452   2.17984   2.18551
 Alpha virt. eigenvalues --    2.18871   2.19191   2.19939   2.21102   2.21583
 Alpha virt. eigenvalues --    2.21859   2.22388   2.22857   2.23640   2.24661
 Alpha virt. eigenvalues --    2.25193   2.25479   2.26337   2.26948   2.27905
 Alpha virt. eigenvalues --    2.28631   2.29231   2.29741   2.30515   2.31976
 Alpha virt. eigenvalues --    2.32263   2.33515   2.33862   2.34364   2.35091
 Alpha virt. eigenvalues --    2.35842   2.36184   2.36335   2.36847   2.38105
 Alpha virt. eigenvalues --    2.38354   2.39032   2.39729   2.40689   2.40965
 Alpha virt. eigenvalues --    2.42492   2.42980   2.43598   2.44168   2.44306
 Alpha virt. eigenvalues --    2.44842   2.48238   2.48706   2.49168   2.50313
 Alpha virt. eigenvalues --    2.51136   2.51630   2.52786   2.53401   2.54952
 Alpha virt. eigenvalues --    2.57613   2.58802   2.60616   2.63928   2.65178
 Alpha virt. eigenvalues --    2.65715   2.66409   2.67157   2.67255   2.67790
 Alpha virt. eigenvalues --    2.68271   2.68844   2.69040   2.69838   2.70564
 Alpha virt. eigenvalues --    2.70894   2.71372   2.71789   2.72290   2.73519
 Alpha virt. eigenvalues --    2.73731   2.74186   2.75511   2.76069   2.76877
 Alpha virt. eigenvalues --    2.77248   2.77700   2.78610   2.78921   2.79720
 Alpha virt. eigenvalues --    2.80265   2.80560   2.82707   2.83573   2.84223
 Alpha virt. eigenvalues --    2.85896   2.86396   2.86742   2.87041   2.88074
 Alpha virt. eigenvalues --    2.88647   2.88720   2.89783   2.91357   2.91678
 Alpha virt. eigenvalues --    2.92208   2.93042   2.93342   2.93908   2.94306
 Alpha virt. eigenvalues --    2.94553   2.95907   2.96546   2.96675   2.97237
 Alpha virt. eigenvalues --    2.98448   2.99000   2.99578   3.00060   3.00515
 Alpha virt. eigenvalues --    3.02061   3.02130   3.02843   3.02899   3.04812
 Alpha virt. eigenvalues --    3.07345   3.16776   3.21035   3.24895   3.25047
 Alpha virt. eigenvalues --    3.27352   3.27407   3.29846   3.31204   3.32174
 Alpha virt. eigenvalues --    3.34951   3.37230   3.39049   3.39240   3.43312
 Alpha virt. eigenvalues --    3.45297   3.46475   3.48193   3.50092   3.50741
 Alpha virt. eigenvalues --    3.51281   3.52809   3.54833   3.57002   3.57654
 Alpha virt. eigenvalues --    3.58950   3.59185   3.59912   3.60093   3.62202
 Alpha virt. eigenvalues --    3.63910   3.64917   3.65561   3.68585   8.61603
 Alpha virt. eigenvalues --    9.56676
          Condensed to atoms (all electrons):
 Mulliken charges:
               1
     1  Li   0.585614
     2  N   -0.496616
     3  C    0.058476
     4  Cl   0.054846
     5  N   -0.407057
     6  C   -0.029736
     7  Cl  -0.038220
     8  N   -0.378484
     9  C   -0.003008
    10  Cl  -0.044581
    11  Zn   1.003140
    12  N   -0.512319
    13  C    0.059926
    14  Cl   0.059565
    15  N   -0.561772
    16  C    0.019839
    17  Cl  -0.031947
    18  N   -0.541877
    19  C    0.037766
    20  Cl  -0.002560
    21  C    0.221053
    22  H    0.146086
    23  C    0.154996
    24  H    0.108885
    25  C    0.158530
    26  H    0.112536
    27  C    0.242096
    28  C   -0.180352
    29  O   -0.718716
    30  C   -0.312268
    31  H    0.137122
    32  H    0.152951
    33  H    0.112043
    34  H    0.099210
    35  H    0.084489
    36  H    0.030236
    37  N   -0.381921
    38  C   -0.069078
    39  C   -0.345222
    40  H    0.173693
    41  H    0.141918
    42  H    0.144348
    43  H    0.135529
    44  H    0.123358
    45  C   -0.066342
    46  C   -0.349618
    47  H    0.144226
    48  H    0.132359
    49  H    0.124469
    50  H    0.150787
    51  H    0.168884
    52  C   -0.087132
    53  C   -0.350575
    54  H    0.175536
    55  H    0.129057
    56  H    0.168897
    57  H    0.155765
    58  H    0.127145
    59  C   -0.076203
    60  C   -0.343457
    61  H    0.178937
    62  H    0.157729
    63  H    0.162119
    64  H    0.111992
    65  H    0.133154
    66  Br  -0.250248
 Sum of Mulliken charges =   0.00000
 Mulliken charges with hydrogens summed into heavy atoms:
               1
     1  Li   0.585614
     2  N   -0.496616
     3  C    0.058476
     4  Cl   0.054846
     5  N   -0.407057
     6  C   -0.029736
     7  Cl  -0.038220
     8  N   -0.378484
     9  C   -0.003008
    10  Cl  -0.044581
    11  Zn   1.003140
    12  N   -0.512319
    13  C    0.059926
    14  Cl   0.059565
    15  N   -0.561772
    16  C    0.019839
    17  Cl  -0.031947
    18  N   -0.541877
    19  C    0.037766
    20  Cl  -0.002560
    21  C    0.367138
    23  C    0.263881
    25  C    0.271066
    27  C    0.272332
    28  C    0.109721
    29  O   -0.718716
    30  C   -0.016527
    37  N   -0.381921
    38  C    0.246534
    39  C    0.058014
    45  C    0.210242
    46  C    0.094522
    52  C    0.217461
    53  C    0.101233
    59  C    0.260463
    60  C    0.063809
    66  Br  -0.250248
 Electronic spatial extent (au):  <R**2>=          29698.3505
 Charge=              0.0000 electrons
 Dipole moment (field-independent basis, Debye):
    X=              6.4682    Y=             -0.6615    Z=             -6.3987  Tot=              9.1224
 Quadrupole moment (field-independent basis, Debye-Ang):
   XX=           -311.3557   YY=           -140.9476   ZZ=           -263.2383
   XY=             50.1842   XZ=             13.4067   YZ=             59.0435
 Traceless Quadrupole moment (field-independent basis, Debye-Ang):
   XX=            -72.8419   YY=             97.5663   ZZ=            -24.7244
   XY=             50.1842   XZ=             13.4067   YZ=             59.0435
 Octapole moment (field-independent basis, Debye-Ang**2):
  XXX=           -396.4900  YYY=           -792.0548  ZZZ=           -182.7677  XYY=             42.4641
  XXY=           -339.5278  XXZ=             26.3590  XZZ=           -232.4903  YZZ=           -571.8082
  YYZ=           -208.6852  XYZ=              7.5300
 Hexadecapole moment (field-independent basis, Debye-Ang**3):
 XXXX=         -12869.9635 YYYY=         -13021.9776 ZZZZ=          -6511.2943 XXXY=          -2581.0312
 XXXZ=           -458.1967 YYYX=          -1472.9746 YYYZ=            459.1110 ZZZX=           -619.0950
 ZZZY=           -553.2039 XXYY=          -4664.8985 XXZZ=          -3379.8018 YYZZ=          -3151.3922
 XXYZ=           -327.8929 YYXZ=            108.2464 ZZXY=           -962.1594
 N-N= 6.639440486420D+03 E-N=-2.912831243136D+04  KE= 6.679277405928D+03
  Exact polarizability: 347.218  16.457 362.980  -4.860  17.011 324.475
 Approx polarizability: 416.304   0.807 405.598 -15.088   5.461 409.034
   1 Symmetry operations used in ECPInt.
 ECPInt:  NShTT=   31626 NPrTT=  185399 LenC2=   24293 LenP2D=   73946.
 LDataN:  DoStor=T MaxTD1= 7 Len=  274
 Calling FoFJK, ICntrl=    100127 FMM=F ISym2X=0 I1Cent= 0 IOpClX= 0 NMat=1 NMatS=1 NMatT=0.
 -------------------------------------------------------------------
 Center     Atomic                   Forces (Hartrees/Bohr)
 Number     Number              X              Y              Z
 -------------------------------------------------------------------
      1        3          -0.000000000   -0.000000000   -0.000000000
      2        7          -0.000000000   -0.000000000   -0.000000000
      3        6           0.000000262    0.000000241   -0.000000050
      4       17          -0.000000003   -0.000000050   -0.000000070
      5        7          -0.000000000   -0.000000000   -0.000000000
      6        6           0.000000317    0.000000033   -0.000000032
      7       17          -0.000000063    0.000000005    0.000000006
      8        7          -0.000000000   -0.000000000   -0.000000000
      9        6           0.000000001    0.000000069   -0.000000173
     10       17          -0.000000141    0.000000073   -0.000000071
     11       30           0.000000044    0.000000115    0.000000007
     12        7           0.000000206   -0.000000140   -0.000000060
     13        6          -0.000000146   -0.000000133   -0.000000094
     14       17          -0.000000063    0.000000032    0.000000112
     15        7          -0.000000545    0.000000287    0.000000056
     16        6           0.000000444   -0.000000271    0.000000191
     17       17          -0.000000065    0.000000030   -0.000000079
     18        7           0.000000198   -0.000000105   -0.000000134
     19        6           0.000000007   -0.000000498    0.000000325
     20       17          -0.000000065    0.000000223   -0.000000100
     21        6          -0.000000240   -0.000000023   -0.000000123
     22        1           0.000000134    0.000000119    0.000000010
     23        6           0.000000429   -0.000000259   -0.000000009
     24        1          -0.000000018    0.000000050   -0.000000047
     25        6          -0.000000883    0.000000150    0.000000219
     26        1           0.000000266   -0.000000040   -0.000000015
     27        6           0.000000437    0.000000343    0.000000658
     28        6           0.000000428   -0.000000488    0.000000301
     29        8          -0.000000398   -0.000000381   -0.000000334
     30        6          -0.000000404    0.000000606    0.000000405
     31        1          -0.000000271    0.000000255   -0.000000204
     32        1           0.000000045    0.000000075   -0.000000128
     33        1           0.000000260   -0.000000309   -0.000000275
     34        1           0.000000108    0.000000014   -0.000000058
     35        1          -0.000000207   -0.000000185   -0.000000189
     36        1           0.000000038    0.000000043   -0.000000129
     37        7          -0.000000296   -0.000000115   -0.000000097
     38        6          -0.000000223    0.000000466    0.000000260
     39        6          -0.000000120   -0.000000659    0.000000269
     40        1           0.000000077   -0.000000036    0.000000024
     41        1           0.000000315   -0.000000193   -0.000000060
     42        1          -0.000000041   -0.000000012    0.000000024
     43        1          -0.000000104    0.000000133   -0.000000082
     44        1           0.000000134    0.000000372   -0.000000273
     45        6           0.000000730    0.000000612    0.000000384
     46        6          -0.000000362   -0.000000287   -0.000000501
     47        1          -0.000000455   -0.000000133   -0.000000272
     48        1           0.000000042   -0.000000097    0.000000004
     49        1           0.000000048    0.000000012    0.000000046
     50        1          -0.000000026    0.000000064    0.000000054
     51        1           0.000000259    0.000000093    0.000000153
     52        6          -0.000000390   -0.000000225    0.000000388
     53        6          -0.000000145    0.000000050   -0.000000356
     54        1           0.000000136   -0.000000052   -0.000000219
     55        1           0.000000065   -0.000000010    0.000000000
     56        1           0.000000297    0.000000105    0.000000254
     57        1           0.000000058    0.000000059    0.000000020
     58        1          -0.000000026   -0.000000020   -0.000000040
     59        6          -0.000000364   -0.000000465   -0.000000013
     60        6           0.000000508   -0.000000240   -0.000000338
     61        1           0.000000046    0.000000166    0.000000148
     62        1           0.000000126    0.000000198   -0.000000116
     63        1          -0.000000081    0.000000319    0.000000031
     64        1          -0.000000109   -0.000000148    0.000000057
     65        1          -0.000000090    0.000000043    0.000000255
     66       35          -0.000000040    0.000000004   -0.000000048
 -------------------------------------------------------------------
 Cartesian Forces:  Max     0.000000883 RMS     0.000000237

 GradGradGradGradGradGradGradGradGradGradGradGradGradGradGradGradGradGrad
 Berny optimization.
 Search for a local minimum.
 Step number   1 out of a maximum of  208
 All quantities printed in internal units (Hartrees-Bohrs-Radians)
 Second derivative matrix not updated -- analytic derivatives used.
 ITU=  0
     Eigenvalues ---    0.00001   0.00002   0.00009   0.00010   0.00014
     Eigenvalues ---    0.00024   0.00033   0.00041   0.00046   0.00056
     Eigenvalues ---    0.00072   0.00083   0.00091   0.00114   0.00116
     Eigenvalues ---    0.00134   0.00140   0.00177   0.00208   0.00240
     Eigenvalues ---    0.00251   0.00326   0.00364   0.00377   0.00387
     Eigenvalues ---    0.00446   0.00449   0.00476   0.00574   0.00594
     Eigenvalues ---    0.00629   0.00706   0.00952   0.00959   0.01186
     Eigenvalues ---    0.01302   0.01320   0.01358   0.01424   0.01446
     Eigenvalues ---    0.01554   0.02027   0.02429   0.02660   0.02673
     Eigenvalues ---    0.02753   0.02871   0.02896   0.02949   0.03012
     Eigenvalues ---    0.03089   0.03455   0.03475   0.03547   0.03701
     Eigenvalues ---    0.03738   0.03917   0.03975   0.04018   0.04443
     Eigenvalues ---    0.04619   0.05281   0.05450   0.05662   0.05720
     Eigenvalues ---    0.05741   0.06110   0.06334   0.06524   0.06624
     Eigenvalues ---    0.06709   0.06851   0.06880   0.06928   0.07049
     Eigenvalues ---    0.07123   0.07347   0.07392   0.07589   0.07798
     Eigenvalues ---    0.07839   0.07956   0.08158   0.08560   0.08930
     Eigenvalues ---    0.09127   0.09927   0.09983   0.10158   0.10305
     Eigenvalues ---    0.10534   0.11175   0.11348   0.11435   0.11607
     Eigenvalues ---    0.11681   0.11750   0.12061   0.12339   0.13093
     Eigenvalues ---    0.14099   0.14154   0.14402   0.14556   0.15210
     Eigenvalues ---    0.15471   0.15830   0.16439   0.16594   0.16927
     Eigenvalues ---    0.16965   0.17149   0.17311   0.19465   0.20669
     Eigenvalues ---    0.20756   0.20838   0.21050   0.21127   0.21148
     Eigenvalues ---    0.22027   0.23039   0.23788   0.24278   0.24579
     Eigenvalues ---    0.26611   0.27540   0.27707   0.28479   0.33230
     Eigenvalues ---    0.34005   0.34451   0.34771   0.35009   0.35247
     Eigenvalues ---    0.37169   0.44393   0.47543   0.48368   0.48561
     Eigenvalues ---    0.51195   0.53847   0.55224   0.56161   0.62185
     Eigenvalues ---    0.65321   0.65398   0.66073   0.66154   0.66352
     Eigenvalues ---    0.67535   0.68535   0.75773   0.77869   0.79727
     Eigenvalues ---    0.80821   0.81594   0.81818   0.82255   0.84584
     Eigenvalues ---    0.84749   0.85155   0.85224   0.85954   0.86098
     Eigenvalues ---    0.86287   0.87198   0.87963   0.89966   0.90141
     Eigenvalues ---    0.91475   0.93080   0.93356   0.93949   0.94751
     Eigenvalues ---    0.95631   0.96483   0.97556   0.98791   0.99656
     Eigenvalues ---    1.10854   1.11606   1.15024   1.15612   1.18306
     Eigenvalues ---    1.21740
 RFO step:  Lambda= 0.00000000D+00 EMin= 1.45911404D-05
 Linear search not attempted -- first point.
 Variable       Old X    -DE/DX   Delta X   Delta X   Delta X     New X
                                 (Linear)    (Quad)   (Total)
    X1       -1.23999  -0.00000   0.00000   0.00000   0.00000  -1.23999
    Y1       -9.52118  -0.00000   0.00000   0.00000   0.00000  -9.52118
    Z1       -6.53361  -0.00000   0.00000   0.00000   0.00000  -6.53361
    X2       -0.53440  -0.00000   0.00000   0.00000   0.00000  -0.53440
    Y2       -6.94584  -0.00000   0.00000   0.00000   0.00000  -6.94584
    Z2       -4.14735  -0.00000   0.00000   0.00000   0.00000  -4.14735
    X3       -2.27760   0.00000   0.00000  -0.00000  -0.00000  -2.27760
    Y3       -7.41893   0.00000   0.00000   0.00000   0.00000  -7.41893
    Z3       -2.30888  -0.00000   0.00000  -0.00000  -0.00000  -2.30888
    X4       -4.07542  -0.00000   0.00000  -0.00001  -0.00001  -4.07543
    Y4      -10.16267  -0.00000   0.00000   0.00000   0.00000 -10.16266
    Z4       -2.55438  -0.00000   0.00000  -0.00001  -0.00001  -2.55439
    X5        4.39971  -0.00000   0.00000   0.00000   0.00000   4.39971
    Y5        4.91149  -0.00000   0.00000   0.00000   0.00000   4.91149
    Z5       -4.57207  -0.00000   0.00000   0.00000   0.00000  -4.57207
    X6        6.31817   0.00000   0.00000  -0.00000  -0.00000   6.31817
    Y6        3.35479   0.00000   0.00000  -0.00000  -0.00000   3.35479
    Z6       -3.88817  -0.00000   0.00000  -0.00000  -0.00000  -3.88817
    X7        9.44104  -0.00000   0.00000  -0.00000  -0.00000   9.44104
    Y7        3.99925   0.00000   0.00000  -0.00000  -0.00000   3.99925
    Z7       -4.62934   0.00000   0.00000   0.00000   0.00000  -4.62934
    X8       -6.28803  -0.00000   0.00000   0.00000   0.00000  -6.28803
    Y8        3.92134  -0.00000   0.00000   0.00000   0.00000   3.92134
    Z8        2.01394  -0.00000   0.00000   0.00000   0.00000   2.01394
    X9       -6.61237   0.00000   0.00000   0.00000   0.00000  -6.61237
    Y9        3.97302   0.00000   0.00000  -0.00000  -0.00000   3.97302
    Z9       -0.51976  -0.00000   0.00000  -0.00000  -0.00000  -0.51976
   X10       -9.15511  -0.00000   0.00000  -0.00000  -0.00000  -9.15512
   Y10        5.46161   0.00000   0.00000  -0.00000  -0.00000   5.46161
   Z10       -1.94390  -0.00000   0.00000  -0.00000  -0.00000  -1.94390
   X11        0.27041   0.00000   0.00000   0.00000   0.00000   0.27041
   Y11       -0.15318   0.00000   0.00000   0.00000   0.00000  -0.15318
   Z11        0.14693   0.00000   0.00000  -0.00000  -0.00000   0.14693
   X12       -0.52845   0.00000   0.00000  -0.00000  -0.00000  -0.52845
   Y12       -3.77498  -0.00000   0.00000  -0.00000  -0.00000  -3.77498
   Z12       -1.34764  -0.00000   0.00000  -0.00000  -0.00000  -1.34764
   X13       -2.29277  -0.00000   0.00000  -0.00001  -0.00001  -2.29278
   Y13       -5.49845  -0.00000   0.00000   0.00000   0.00000  -5.49845
   Z13       -0.58881  -0.00000   0.00000  -0.00000  -0.00000  -0.58881
   X14       -4.10934  -0.00000   0.00000  -0.00001  -0.00001  -4.10935
   Y14       -5.14493   0.00000   0.00000   0.00000   0.00000  -5.14492
   Z14        2.05781   0.00000   0.00000  -0.00001  -0.00001   2.05780
   X15       -3.07465  -0.00000   0.00000  -0.00000  -0.00000  -3.07465
   Y15        1.82460   0.00000   0.00000   0.00000   0.00000   1.82460
   Z15        0.11868   0.00000   0.00000   0.00000   0.00000   0.11868
   X16       -4.67924   0.00000   0.00000   0.00000   0.00000  -4.67924
   Y16        2.69758  -0.00000   0.00000  -0.00000  -0.00000   2.69758
   Z16       -1.69440   0.00000   0.00000   0.00000   0.00000  -1.69440
   X17       -4.22665  -0.00000   0.00000  -0.00000  -0.00000  -4.22665
   Y17        2.10955   0.00000   0.00000  -0.00000  -0.00000   2.10955
   Z17       -4.87823  -0.00000   0.00000  -0.00000  -0.00000  -4.87823
   X18        2.83419   0.00000   0.00000  -0.00000  -0.00000   2.83419
   Y18        1.58449  -0.00000   0.00000  -0.00000  -0.00000   1.58449
   Z18       -2.36771  -0.00000   0.00000  -0.00000  -0.00000  -2.36771
   X19        5.39232   0.00000   0.00000  -0.00000  -0.00000   5.39232
   Y19        1.33371  -0.00000   0.00000  -0.00000  -0.00000   1.33371
   Z19       -2.54633   0.00000   0.00000  -0.00000  -0.00000  -2.54633
   X20        6.99709  -0.00000   0.00000   0.00000   0.00000   6.99709
   Y20       -1.20890   0.00000   0.00000   0.00000   0.00000  -1.20890
   Z20       -1.29311  -0.00000   0.00000  -0.00000  -0.00000  -1.29311
   X21        0.45840  -0.00000   0.00000   0.00000   0.00000   0.45840
   Y21       -4.71683  -0.00000   0.00000  -0.00000  -0.00000  -4.71683
   Z21       -3.46669  -0.00000   0.00000   0.00000   0.00000  -3.46668
   X22        1.91865   0.00000   0.00000   0.00001   0.00001   1.91865
   Y22       -3.75488   0.00000   0.00000  -0.00000  -0.00000  -3.75489
   Z22       -4.52168   0.00000   0.00000   0.00001   0.00001  -4.52167
   X23       -4.16443   0.00000   0.00000   0.00000   0.00000  -4.16443
   Y23        2.61929  -0.00000   0.00000   0.00000   0.00000   2.61929
   Z23        2.29967  -0.00000   0.00000   0.00000   0.00000   2.29967
   X24       -3.33965  -0.00000   0.00000   0.00000   0.00000  -3.33965
   Y24        2.16545   0.00000   0.00000   0.00000   0.00000   2.16545
   Z24        4.11379  -0.00000   0.00000   0.00000   0.00000   4.11379
   X25        2.36634  -0.00000   0.00000  -0.00000  -0.00000   2.36634
   Y25        3.75700   0.00000   0.00000   0.00000   0.00000   3.75700
   Z25       -3.63144   0.00000   0.00000   0.00000   0.00000  -3.63144
   X26        0.46226   0.00000   0.00000   0.00000   0.00000   0.46226
   Y26        4.46064  -0.00000   0.00000   0.00000   0.00000   4.46064
   Z26       -3.86824  -0.00000   0.00000  -0.00000  -0.00000  -3.86824
   X27        3.35234   0.00000   0.00000   0.00000   0.00000   3.35234
   Y27        1.09256   0.00000   0.00000  -0.00000  -0.00000   1.09256
   Z27        4.67553   0.00000   0.00000  -0.00000  -0.00000   4.67553
   X28        1.99628   0.00000   0.00000   0.00001   0.00001   1.99629
   Y28        2.89631  -0.00000   0.00000  -0.00000  -0.00000   2.89630
   Z28        6.49230   0.00000   0.00000   0.00000   0.00000   6.49230
   X29        1.45212  -0.00000   0.00000   0.00000   0.00000   1.45212
   Y29       -0.28622  -0.00000   0.00000  -0.00000  -0.00000  -0.28622
   Z29        3.55659  -0.00000   0.00000  -0.00000  -0.00000   3.55659
   X30        5.22502  -0.00000   0.00000   0.00000   0.00000   5.22502
   Y30       -0.61634   0.00000   0.00000  -0.00000  -0.00000  -0.61634
   Z30        6.04920   0.00000   0.00000  -0.00000  -0.00000   6.04920
   X31        0.54055  -0.00000   0.00000   0.00000   0.00000   0.54056
   Y31        3.96686   0.00000   0.00000  -0.00000  -0.00000   3.96686
   Z31        5.51569  -0.00000   0.00000   0.00000   0.00000   5.51569
   X32        1.17286   0.00000   0.00000   0.00001   0.00001   1.17287
   Y32        1.88174   0.00000   0.00000  -0.00000  -0.00000   1.88174
   Z32        8.08160  -0.00000   0.00000   0.00000   0.00000   8.08160
   X33        6.12572   0.00000   0.00000   0.00000   0.00000   6.12572
   Y33       -1.87033  -0.00000   0.00000  -0.00000  -0.00000  -1.87033
   Z33        4.68013  -0.00000   0.00000  -0.00000  -0.00000   4.68013
   X34        4.20710   0.00000   0.00000   0.00000   0.00000   4.20710
   Y34       -1.78572   0.00000   0.00000  -0.00000  -0.00000  -1.78572
   Z34        7.41778  -0.00000   0.00000  -0.00000  -0.00000   7.41777
   X35        6.68981  -0.00000   0.00000   0.00000   0.00000   6.68982
   Y35        0.45742  -0.00000   0.00000  -0.00000  -0.00000   0.45742
   Z35        7.03719  -0.00000   0.00000  -0.00000  -0.00000   7.03718
   X36        4.43724   0.00000   0.00000   0.00000   0.00000   4.43724
   Y36        2.25795   0.00000   0.00000  -0.00000  -0.00000   2.25795
   Z36        3.31200  -0.00000   0.00000  -0.00000  -0.00000   3.31199
   X37        4.23970  -0.00000   0.00000   0.00000   0.00000   4.23971
   Y37       10.11437  -0.00000   0.00000   0.00000   0.00000  10.11437
   Z37        0.91754  -0.00000   0.00000   0.00000   0.00000   0.91754
   X38        3.62897  -0.00000   0.00000   0.00001   0.00001   3.62898
   Y38       11.32934   0.00000   0.00000   0.00000   0.00000  11.32935
   Z38        3.45617   0.00000   0.00000   0.00000   0.00000   3.45617
   X39        5.61035  -0.00000   0.00000   0.00001   0.00001   5.61036
   Y39       13.05593  -0.00000   0.00000   0.00000   0.00000  13.05593
   Z39        4.62286   0.00000   0.00000  -0.00000  -0.00000   4.62286
   X40        3.20729   0.00000   0.00000   0.00001   0.00001   3.20731
   Y40        9.77363  -0.00000   0.00000   0.00000   0.00000   9.77363
   Z40        4.74019   0.00000   0.00000   0.00000   0.00000   4.74019
   X41        1.89426   0.00000   0.00000   0.00001   0.00001   1.89427
   Y41       12.40653  -0.00000   0.00000  -0.00000  -0.00000  12.40653
   Z41        3.16253  -0.00000   0.00000   0.00000   0.00000   3.16253
   X42        4.92426  -0.00000   0.00000   0.00001   0.00001   4.92427
   Y42       13.55934  -0.00000   0.00000   0.00000   0.00000  13.55935
   Z42        6.50460   0.00000   0.00000  -0.00000  -0.00000   6.50460
   X43        7.44486  -0.00000   0.00000   0.00001   0.00001   7.44487
   Y43       12.15414   0.00000   0.00000   0.00001   0.00001  12.15414
   Z43        4.86279  -0.00000   0.00000  -0.00001  -0.00001   4.86278
   X44        5.86008   0.00000   0.00000   0.00000   0.00000   5.86008
   Y44       14.81363   0.00000   0.00000   0.00000   0.00000  14.81364
   Z44        3.57361  -0.00000   0.00000  -0.00000  -0.00000   3.57361
   X45        5.71349   0.00000   0.00000   0.00000   0.00000   5.71350
   Y45       11.93017   0.00000   0.00000   0.00000   0.00000  11.93017
   Z45       -0.73071   0.00000   0.00000  -0.00000  -0.00000  -0.73071
   X46        6.61064  -0.00000   0.00000   0.00000   0.00000   6.61064
   Y46       10.88970  -0.00000   0.00000  -0.00000  -0.00000  10.88969
   Z46       -3.25534  -0.00000   0.00000  -0.00000  -0.00000  -3.25534
   X47        7.33509  -0.00000   0.00000   0.00000   0.00000   7.33509
   Y47       12.54939  -0.00000   0.00000   0.00000   0.00000  12.54939
   Z47        0.37003  -0.00000   0.00000  -0.00000  -0.00000   0.37002
   X48        4.47852   0.00000   0.00000   0.00000   0.00000   4.47852
   Y48       13.56525  -0.00000   0.00000  -0.00000  -0.00000  13.56524
   Z48       -0.99136   0.00000   0.00000  -0.00000  -0.00000  -0.99136
   X49        7.40211   0.00000   0.00000  -0.00000  -0.00000   7.40211
   Y49       12.47178   0.00000   0.00000  -0.00000  -0.00000  12.47178
   Z49       -4.32162   0.00000   0.00000  -0.00001  -0.00001  -4.32162
   X50        8.10003  -0.00000   0.00000   0.00000   0.00000   8.10003
   Y50        9.48173   0.00000   0.00000   0.00000   0.00000   9.48173
   Z50       -3.03420   0.00000   0.00000  -0.00000  -0.00000  -3.03420
   X51        5.12969   0.00000   0.00000   0.00000   0.00000   5.12969
   Y51       10.02442   0.00000   0.00000  -0.00001  -0.00001  10.02441
   Z51       -4.39444   0.00000   0.00000  -0.00000  -0.00000  -4.39444
   X52        1.73803  -0.00000   0.00000   0.00000   0.00000   1.73803
   Y52        9.54748  -0.00000   0.00000  -0.00000  -0.00000   9.54747
   Z52       -0.41275   0.00000   0.00000   0.00000   0.00000  -0.41275
   X53       -0.13056  -0.00000   0.00000   0.00001   0.00001  -0.13055
   Y53        7.93763   0.00000   0.00000  -0.00000  -0.00000   7.93763
   Z53        1.05283  -0.00000   0.00000   0.00000   0.00000   1.05283
   X54        2.23483   0.00000   0.00000   0.00000   0.00000   2.23483
   Y54        8.60734  -0.00000   0.00000  -0.00000  -0.00000   8.60734
   Z54       -2.17388  -0.00000   0.00000   0.00000   0.00000  -2.17387
   X55        0.92502   0.00000   0.00000   0.00000   0.00000   0.92503
   Y55       11.39531  -0.00000   0.00000  -0.00000  -0.00000  11.39530
   Z55       -0.84586   0.00000   0.00000   0.00000   0.00000  -0.84585
   X56       -1.83727   0.00000   0.00000   0.00001   0.00001  -1.83727
   Y56        7.75186   0.00000   0.00000  -0.00000  -0.00000   7.75186
   Z56       -0.09574   0.00000   0.00000   0.00001   0.00001  -0.09574
   X57        0.55106   0.00000   0.00000   0.00001   0.00001   0.55107
   Y57        6.02182   0.00000   0.00000  -0.00000  -0.00000   6.02182
   Z57        1.37184   0.00000   0.00000   0.00000   0.00000   1.37184
   X58       -0.70035  -0.00000   0.00000   0.00001   0.00001  -0.70034
   Y58        8.76665  -0.00000   0.00000  -0.00000  -0.00000   8.76664
   Z58        2.85224  -0.00000   0.00000   0.00001   0.00001   2.85224
   X59        5.64206  -0.00000   0.00000   0.00001   0.00001   5.64207
   Y59        7.62616  -0.00000   0.00000   0.00000   0.00000   7.62616
   Z59        1.23953  -0.00000   0.00000  -0.00000  -0.00000   1.23953
   X60        8.27023   0.00000   0.00000   0.00001   0.00001   8.27024
   Y60        7.76874  -0.00000   0.00000   0.00000   0.00000   7.76874
   Z60        2.37372  -0.00000   0.00000  -0.00000  -0.00000   2.37371
   X61        5.68607   0.00000   0.00000   0.00001   0.00001   5.68608
   Y61        6.77108   0.00000   0.00000   0.00000   0.00000   6.77108
   Z61       -0.63105   0.00000   0.00000  -0.00000  -0.00000  -0.63105
   X62        4.45397   0.00000   0.00000   0.00001   0.00001   4.45398
   Y62        6.46049   0.00000   0.00000   0.00000   0.00000   6.46049
   Z62        2.44569  -0.00000   0.00000   0.00000   0.00000   2.44569
   X63        9.08172  -0.00000   0.00000   0.00001   0.00001   9.08173
   Y63        5.87710   0.00000   0.00000   0.00001   0.00001   5.87711
   Z63        2.21546   0.00000   0.00000  -0.00000  -0.00000   2.21546
   X64        9.53317  -0.00000   0.00000   0.00001   0.00001   9.53317
   Y64        9.05651  -0.00000   0.00000   0.00000   0.00000   9.05652
   Z64        1.37083   0.00000   0.00000  -0.00000  -0.00000   1.37083
   X65        8.23573  -0.00000   0.00000   0.00001   0.00001   8.23574
   Y65        8.23903   0.00000   0.00000   0.00000   0.00000   8.23903
   Z65        4.37907   0.00000   0.00000  -0.00000  -0.00000   4.37906
   X66        4.22832  -0.00000   0.00000   0.00001   0.00001   4.22832
   Y66        5.51201   0.00000   0.00000  -0.00000  -0.00000   5.51201
   Z66        8.04004  -0.00000   0.00000  -0.00000  -0.00000   8.04004
         Item               Value     Threshold  Converged?
 Maximum Force            0.000001     0.000015     YES
 RMS     Force            0.000000     0.000010     YES
 Maximum Displacement     0.000011     0.000060     YES
 RMS     Displacement     0.000004     0.000040     YES
 Predicted change in Energy=-8.266996D-12
 Optimization completed.
    -- Stationary point found.
 GradGradGradGradGradGradGradGradGradGradGradGradGradGradGradGradGradGrad

 Symmetry turned off by external request.
 Stoichiometry    C20H29BrCl6LiN7OZn
 Framework group  C1[X(C20H29BrCl6LiN7OZn)]
 Deg. of freedom   192
 Full point group                 C1      NOp   1
                          Input orientation:                          
 ---------------------------------------------------------------------
 Center     Atomic      Atomic             Coordinates (Angstroms)
 Number     Number       Type             X           Y           Z
 ---------------------------------------------------------------------
      1          3           0       -0.656174   -5.038394   -3.457440
      2          7           0       -0.282792   -3.675582   -2.194684
      3          6           0       -1.205252   -3.925929   -1.221805
      4         17           0       -2.156619   -5.377852   -1.351720
      5          7           0        2.328228    2.599049   -2.419433
      6          6           0        3.343431    1.775280   -2.057532
      7         17           0        4.995985    2.116311   -2.449742
      8          7           0       -3.327483    2.075083    1.065729
      9          6           0       -3.499113    2.102431   -0.275044
     10         17           0       -4.844678    2.890162   -1.028667
     11         30           0        0.143096   -0.081061    0.077751
     12          7           0       -0.279644   -1.997632   -0.713138
     13          6           0       -1.213283   -2.909657   -0.311585
     14         17           0       -2.174567   -2.722579    1.088946
     15          7           0       -1.627037    0.965539    0.062803
     16          6           0       -2.476145    1.427496   -0.896636
     17         17           0       -2.236648    1.116327   -2.581448
     18          7           0        1.499787    0.838474   -1.252936
     19          6           0        2.853495    0.705771   -1.347462
     20         17           0        3.702702   -0.639724   -0.684284
     21          6           0        0.242573   -2.496038   -1.834491
     22          1           0        1.015305   -1.986999   -2.392770
     23          6           0       -2.203724    1.386069    1.216935
     24          1           0       -1.767267    1.145908    2.176926
     25          6           0        1.252213    1.988118   -1.921673
     26          1           0        0.244620    2.360470   -2.046986
     27          6           0        1.773982    0.578158    2.474185
     28          6           0        1.056386    1.532660    3.435578
     29          8           0        0.768430   -0.151460    1.882065
     30          6           0        2.764962   -0.326153    3.201101
     31          1           0        0.286048    2.099173    2.918778
     32          1           0        0.620653    0.995776    4.276597
     33          1           0        3.241590   -0.989734    2.476619
     34          1           0        2.226302   -0.944960    3.925318
     35          1           0        3.540096    0.242057    3.723918
     36          1           0        2.348088    1.194858    1.752633
     37          7           0        2.243555    5.352294    0.485542
     38          6           0        1.920370    5.995231    1.828927
     39          6           0        2.968870    6.908899    2.446313
     40          1           0        1.697227    5.171984    2.508398
     41          1           0        1.002401    6.565255    1.673540
     42          1           0        2.605807    7.175295    3.442087
     43          1           0        3.939649    6.431692    2.573276
     44          1           0        3.101020    7.839037    1.891073
     45          6           0        3.023450    6.313175   -0.386674
     46          6           0        3.498201    5.762579   -1.722652
     47          1           0        3.881562    6.640850    0.195811
     48          1           0        2.369930    7.178419   -0.524605
     49          1           0        3.917030    6.599782   -2.286901
     50          1           0        4.286350    5.017513   -1.605631
     51          1           0        2.714513    5.304692   -2.325436
     52          6           0        0.919726    5.052307   -0.218420
     53          6           0       -0.069089    4.200413    0.557132
     54          1           0        1.182621    4.554807   -1.150366
     55          1           0        0.489501    6.030137   -0.447608
     56          1           0       -0.972243    4.102108   -0.050666
     57          1           0        0.291609    3.186609    0.725946
     58          1           0       -0.370610    4.639111    1.509339
     59          6           0        2.985651    4.035592    0.655933
     60          6           0        4.376419    4.111040    1.256116
     61          1           0        3.008941    3.583101   -0.333938
     62          1           0        2.356938    3.418744    1.294202
     63          1           0        4.805837    3.110028    1.172373
     64          1           0        5.044736    4.792501    0.725414
     65          1           0        4.358161    4.359906    2.317302
     66         35           0        2.237529    2.916831    4.254606
 ---------------------------------------------------------------------
 Rotational constants (GHZ):           0.0815728           0.0450911           0.0425481
    4 atoms frozen in the vibrational analysis.
 Diagonal vibrational polarizability:
      825.5979599     301.0888690     411.7370277
 Harmonic frequencies (cm**-1), IR intensities (KM/Mole), Raman scattering
 activities (A**4/AMU), depolarization ratios for plane and unpolarized
 incident light, reduced masses (AMU), force constants (mDyne/A),
 and normal coordinates:
                      1                      2                      3
                      A                      A                      A
 Frequencies --      7.8685                 9.7152                10.6411
 Red. masses --      6.9287                 7.5993                14.0943
 Frc consts  --      0.0003                 0.0004                 0.0009
 IR Inten    --      1.5468                 1.0319                 0.1034
  Atom  AN      X      Y      Z        X      Y      Z        X      Y      Z
     3   6     0.04  -0.03   0.03     0.03  -0.02   0.02     0.12  -0.08   0.10
     4  17     0.07  -0.05   0.06     0.06  -0.04   0.04     0.22  -0.15   0.18
     6   6     0.00   0.01   0.02    -0.01  -0.03  -0.04    -0.00   0.01   0.01
     7  17     0.01   0.03   0.05    -0.01  -0.04  -0.07     0.00   0.00   0.01
     9   6     0.00   0.00   0.00    -0.01  -0.02   0.00     0.01  -0.01  -0.00
    10  17     0.01   0.02   0.00    -0.02  -0.05  -0.00     0.02   0.00  -0.01
    11  30     0.00   0.00  -0.00     0.00   0.00  -0.01     0.00  -0.01   0.02
    12   7     0.02  -0.01   0.01     0.01  -0.00   0.00     0.04  -0.02   0.02
    13   6     0.05  -0.03   0.04     0.03  -0.02   0.03     0.15  -0.09   0.11
    14  17     0.10  -0.06   0.08     0.07  -0.04   0.05     0.29  -0.18   0.22
    15   7    -0.01  -0.01  -0.00     0.01   0.01   0.00    -0.01  -0.02   0.01
    16   6    -0.01  -0.00  -0.00    -0.00  -0.01   0.00     0.00  -0.02   0.01
    17  17    -0.01  -0.00  -0.00    -0.00  -0.03   0.01     0.01  -0.03   0.01
    18   7    -0.00  -0.01  -0.01    -0.01  -0.02  -0.03    -0.00   0.01   0.02
    19   6     0.00   0.01   0.01    -0.01  -0.04  -0.06    -0.00   0.01   0.03
    20  17     0.00   0.02   0.02    -0.02  -0.07  -0.11     0.00   0.03   0.05
    21   6    -0.01   0.01  -0.01    -0.01   0.01  -0.01    -0.04   0.03  -0.04
    22   1    -0.04   0.03  -0.04    -0.04   0.03  -0.03    -0.14   0.10  -0.11
    23   6    -0.01  -0.01  -0.00     0.01   0.02   0.00    -0.01  -0.01   0.01
    24   1    -0.01  -0.02  -0.00     0.02   0.04   0.00    -0.01  -0.01   0.01
    25   6    -0.00  -0.01  -0.02    -0.00   0.00   0.00    -0.00   0.01   0.01
    26   1    -0.00  -0.02  -0.03     0.00   0.02   0.03    -0.00   0.00   0.00
    27   6    -0.01   0.07  -0.02     0.06   0.02  -0.06    -0.01  -0.05   0.05
    28   6    -0.03   0.07  -0.03     0.10   0.02  -0.03    -0.01  -0.05   0.05
    29   8     0.01   0.04  -0.00     0.03   0.03  -0.02    -0.02  -0.02   0.02
    30   6     0.02   0.11  -0.01     0.09   0.02  -0.10    -0.04  -0.07   0.05
    31   1    -0.05   0.04  -0.04     0.08   0.02   0.01     0.01  -0.03   0.05
    32   1    -0.01   0.08  -0.02     0.14   0.02  -0.01    -0.04  -0.05   0.04
    33   1     0.03   0.11   0.00     0.06   0.02  -0.12    -0.04  -0.07   0.05
    34   1     0.03   0.11   0.01     0.12   0.02  -0.08    -0.06  -0.07   0.04
    35   1     0.00   0.14  -0.02     0.11   0.02  -0.13    -0.04  -0.10   0.07
    36   1    -0.03   0.08  -0.03     0.03   0.02  -0.08     0.01  -0.05   0.07
    37   7    -0.09   0.07  -0.08     0.13   0.02  -0.05    -0.00  -0.06   0.09
    38   6    -0.11   0.10  -0.10     0.16   0.04  -0.05     0.00  -0.09   0.10
    39   6    -0.15   0.15  -0.12     0.16   0.07  -0.10     0.02  -0.13   0.13
    40   1    -0.09   0.10  -0.08     0.19   0.05  -0.03    -0.02  -0.10   0.08
[...]
 00255,-0.00000770,-0.00000413,0.,0.,0.,-0.00046873,-0.00014804,0.00009
 263,0.00024369,0.00016532,0.00008257,0.,0.,0.,0.00001562,-0.00000955,0
 .00000568,-0.00001221,0.00000636,-0.00000758,0.00003271,0.00003020,0.0
 0017560,-0.00000377,-0.00002166,-0.00003061,0.00000273,0.00001356,0.00
 000942,0.00000307,-0.00000260,-0.00000766,-0.00001891,-0.00000558,-0.0
 0002431,-0.00001162,0.00000921,0.00003464,0.00000468,-0.00000382,-0.00
 002020,0.00017694,0.00003157,-0.00010679,0.00001540,-0.00008419,0.0000
 1843,-0.00002040,0.00004877,-0.00003291,-0.00001160,0.00000911,0.00002
 231,-0.00000084,-0.00000056,0.00000115,0.00000701,-0.00001161,0.000000
 77,0.00000856,0.00000462,-0.00000642,0.00005082,0.00001134,-0.00002056
 ,0.00001458,0.00001078,0.00000604,0.00026523,0.00025434,-0.00010271,0.
 00003308,-0.00002404,-0.00003462,-0.00021251,-0.00015029,-0.00012214,-
 0.00002059,0.00001115,0.00004334,0.00000862,0.00000876,-0.00000403,-0.
 00000579,0.00001679,0.00002795,0.00000681,0.00000608,-0.00000389,-0.00
 001441,-0.00002601,0.00001294,-0.00001153,0.00000755,-0.00003861,-0.00
 003826,-0.00005920,0.00009877,-0.00055786,0.00075233,-0.00066020,0.000
 16939,-0.00006113,-0.00024882,0.00000104,0.00009686,0.00002893,-0.0000
 0743,-0.00001554,-0.00001860,-0.00002046,0.00001460,0.00003024,-0.0000
 3546,0.00004278,0.00002505,0.00000962,0.00000779,-0.00018714,-0.000003
 47,0.00001542,0.00001369,0.00050667,-0.00092276,0.00089836,-0.00001649
 ,0.00006237,0.00008470,0.00124394,-0.00105018,0.00080273,0.00011283,0.
 00015805,-0.00014086,0.00011150,-0.00010018,0.00001813,0.00003321,0.00
 005385,-0.00028484,0.00005954,-0.00006951,-0.00003218,0.00017265,0.000
 15460,0.00022591,-0.00008331,0.00000842,-0.00009849,-0.00003393,-0.000
 01038,0.00001247,-0.00009243,0.00002201,-0.00004694,-0.00002604,0.0000
 0281,0.00001986,0.00004719,0.00003160,0.00001236,0.00001426,0.00000098
 ,0.00000018,0.00224727,-0.00079495,-0.00063900,-0.10558911,-0.15513543
 ,0.08368016,-0.00034871,-0.00016528,0.00011296,0.00036981,0.00112016,-
 0.00028548,-0.01916395,-0.01699932,0.01520213,0.11378398,0.16693117,0.
 ,0.,0.,0.,0.,0.,-0.00000460,-0.00000786,-0.00000232,0.00000404,0.00000
 838,0.00000292,0.,0.,0.,-0.00012867,-0.00006196,0.00003015,0.00007412,
 0.00005843,0.00002379,0.,0.,0.,-0.00000970,0.00000414,-0.00000189,0.00
 001133,-0.00000762,0.00000614,-0.00006415,0.00002461,-0.00009551,0.000
 01339,0.00001493,0.00001891,-0.00000571,-0.00000644,-0.00000015,0.0000
 0048,0.00000101,0.00000169,0.00002348,-0.00002033,0.00001620,-0.000002
 35,-0.00000078,-0.00000288,0.00000256,0.00000029,0.00000526,0.00003812
 ,0.00000675,-0.00002673,-0.00000006,0.00000174,-0.00000939,0.00000458,
 0.00000431,0.00000758,0.00000308,-0.00001070,-0.00001238,-0.00000108,-
 0.00000108,-0.00000180,-0.00001636,0.00001390,-0.00001666,-0.00000844,
 -0.00000084,0.00000290,0.00000062,-0.00000957,-0.00000292,0.00000881,0
 .00000608,0.00000838,0.00008719,-0.00007147,-0.00013541,-0.00017504,-0
 .00019924,-0.00035457,0.00007495,0.00010336,0.00018721,-0.00003801,-0.
 00001918,0.00000704,0.00004558,0.00004815,0.00001152,0.00006794,0.0000
 7218,0.00008820,-0.00000196,0.00001367,0.00000617,0.00001530,0.0000008
 6,0.00000406,0.00002336,-0.00001549,0.00001777,-0.00002315,0.00000760,
 0.00000874,0.00091491,0.00061399,0.00039004,0.00007925,0.00026731,-0.0
 0008576,0.00023484,-0.00007259,0.00036309,-0.00013012,-0.00001103,-0.0
 0008376,-0.00005365,-0.00008388,0.00003010,-0.00019342,0.00012475,-0.0
 0001459,0.00001521,0.00018938,-0.00044019,-0.00000198,-0.00003365,0.00
 000125,-0.00033497,0.00096655,0.00020438,-0.00046844,0.00045803,-0.000
 16041,-0.00047661,0.00026094,-0.00005588,0.00001782,-0.00008606,-0.000
 11634,-0.00000417,-0.00001573,-0.00001417,-0.00018347,-0.00010954,-0.0
 0074442,0.00015182,-0.00017963,0.00001420,0.00015468,-0.00024669,0.000
 07040,-0.00008979,-0.00011569,-0.00004430,-0.00002598,-0.00001885,-0.0
 0000372,0.00005894,0.00000961,0.00001352,-0.00001806,0.00005151,-0.000
 00375,-0.00000228,0.00009333,-0.00001182,0.00000518,0.00001945,-0.0000
 0665,-0.00744468,-0.01154950,0.00875181,0.08064185,0.08478933,-0.11885
 204,0.00055357,-0.00016261,0.00040868,-0.00287100,0.00020977,-0.000807
 42,-0.00260314,-0.00224648,0.00087749,-0.08638910,-0.09451451,0.122313
 20,0.,0.,0.,0.,0.,0.,-0.00000452,-0.00000335,0.00000218,-0.00000045,0.
 00000146,0.00000173,0.,0.,0.,-0.00050642,0.00003664,-0.00007775,0.0001
 4385,0.00009085,0.00008792,0.,0.,0.,-0.00000486,0.00000220,0.00000457,
 0.00000576,-0.00000356,0.00000567,0.00002757,0.00007323,-0.00022156,-0
 .00000155,0.00000038,0.00002979,0.00000470,-0.00001045,-0.00001640,-0.
 00000475,0.00000128,0.00000862,-0.00001089,-0.00000833,0.00003419,0.00
 001981,-0.00001769,-0.00001490,-0.00000954,0.00000154,0.00002101,-0.00
 001164,-0.00010590,0.00012579,-0.00000063,0.00011816,-0.00003385,0.000
 04236,-0.00006399,0.00004259,0.00001223,0.00000295,-0.00001178,-0.0000
 0069,0.00000592,0.00000264,-0.00000933,0.00001239,-0.00003870,-0.00001
 158,-0.00000671,0.00000505,0.00027491,0.00014433,-0.00019305,0.0000096
 5,0.00000428,0.00000916,0.00016653,-0.00015229,-0.00020486,-0.00035127
 ,-0.00024787,-0.00050677,0.00006487,0.00018244,0.00030895,-0.00002466,
 0.00001683,0.00004511,0.00002286,0.00003200,0.00001487,0.00008018,0.00
 009319,0.00013144,-0.00000919,0.00002618,0.00000691,0.00000160,-0.0000
 1038,-0.00000066,0.00003245,-0.00001435,-0.00000529,-0.00004537,-0.000
 00502,0.00001098,0.00112890,-0.00007608,0.00028053,-0.00005051,0.00055
 872,-0.00061282,-0.00011655,0.00054223,0.00032297,-0.00047096,-0.00005
 537,0.00006887,-0.00001873,-0.00012382,0.00021227,-0.00003588,0.000119
 58,0.00002465,0.00035431,0.00067604,0.00006061,0.00002869,-0.00005155,
 0.00001881,-0.00019220,-0.00013396,0.00011143,-0.00001354,0.00010316,0
 .00004079,0.00001450,0.00010765,0.00003034,0.00006826,0.00005750,-0.00
 003583,0.00002539,0.00002387,0.00001163,-0.00008249,-0.00008992,-0.000
 11907,0.00007106,-0.00010343,0.00006714,-0.00004403,-0.00007380,-0.000
 02940,0.00002908,-0.00001963,-0.00002060,0.00007095,0.00000474,0.00016
 179,-0.00008540,0.00010948,0.00009873,-0.00001010,0.00001149,0.0000160
 4,0.00005193,0.00001928,-0.00005545,-0.00004820,0.00002215,0.00002100,
 0.00169368,-0.01054621,-0.03386573,-0.05078757,0.00153588,0.01042234,-
 0.00593473,0.00039896,-0.00133509,0.00146615,0.00027224,0.00043692,-0.
 00060438,0.00173744,0.01290289,-0.00034464,0.00699418,0.01794057,0.053
 85645,0.,0.,0.,0.,0.,0.,-0.00000525,-0.00000289,0.00000397,-0.00000139
 ,0.00000076,0.00000277,0.,0.,0.,0.00008186,0.00001900,0.00004758,-0.00
 007072,-0.00002260,-0.00007324,0.,0.,0.,-0.00000767,0.00000307,0.00000
 582,0.00001241,-0.00001024,0.00000960,-0.00000470,0.00008537,-0.000323
 60,0.00000094,-0.00000059,0.00004416,0.00000540,-0.00001479,-0.0000238
 5,-0.00000699,0.00000189,0.00001329,0.00000934,-0.00002647,0.00004898,
 0.00001651,-0.00001749,-0.00002178,-0.00000923,0.00000066,0.00002536,-
 0.00008908,-0.00009963,0.00010678,0.00005127,0.00010374,-0.00005908,-0
 .00000008,-0.00004124,0.00002893,0.00001879,0.00000491,-0.00001915,0.0
 0000091,0.00000682,0.00000404,-0.00002716,0.00002474,-0.00004657,-0.00
 001693,-0.00000424,0.00000804,0.00002239,0.00007627,-0.00007290,0.0000
 0705,0.00000520,0.00000635,0.00002293,-0.00018603,-0.00024197,-0.00025
 238,-0.00040489,-0.00044543,0.00018125,0.00021366,0.00040601,-0.000056
 28,-0.00005025,-0.00001399,0.00006258,0.00009135,0.00002157,0.00009264
 ,0.00008385,0.00011411,-0.00000600,0.00004170,0.00000855,0.00002392,0.
 00001311,0.00001147,0.00004880,-0.00003130,0.00004247,-0.00003617,-0.0
 0002714,-0.00000838,-0.00068665,0.00049955,0.00062026,0.00007581,0.000
 50869,0.00012712,0.00064021,-0.00133865,-0.00018360,0.00004185,0.00017
 725,-0.00012609,-0.00012402,-0.00005039,-0.00009025,-0.00001913,-0.000
 00993,-0.00002287,0.00075975,-0.00266734,-0.00035492,-0.00016658,0.000
 02300,-0.00004495,-0.00016167,-0.00011683,0.00026491,0.00001631,0.0001
 0609,0.00004537,-0.00011080,0.00005448,0.00018024,0.00006639,0.0000160
 3,-0.00000243,0.00003616,-0.00001525,0.00000025,0.00003498,-0.00013338
 ,-0.00022905,0.00008177,-0.00010150,0.00001704,0.00031369,0.00009548,0
 .00002978,-0.00002931,0.00003018,-0.00001454,-0.00003086,-0.00002888,0
 .00001016,-0.00004118,-0.00002040,-0.00001250,-0.00000104,-0.00001570,
 0.00001463,0.00001652,-0.00001150,-0.00003283,0.00000897,0.00002706,-0
 .00000765,0.00062751,-0.00182695,-0.00016135,0.00015868,-0.06280056,-0
 .06176009,-0.00064285,0.00128646,-0.00001498,-0.00009665,-0.00010948,-
 0.00057708,-0.00002614,-0.00551607,-0.02975680,0.00094486,0.00569048,0
 .02116461,-0.00215201,0.06625371,0.,0.,0.,0.,0.,0.,0.00000308,0.000009
 20,0.00000555,-0.00000698,-0.00001187,-0.00000252,0.,0.,0.,-0.00007018
 ,0.00004040,-0.00005519,-0.00002453,-0.00003693,-0.00003075,0.,0.,0.,0
 .00001607,-0.00000826,0.00000835,-0.00001275,0.00000812,-0.00000444,0.
 00010688,0.00007322,-0.00007677,-0.00001867,-0.00002622,0.00000240,0.0
 0001356,0.00000031,-0.00001701,-0.00000562,-0.00000063,0.00000669,-0.0
 0004580,0.00000670,0.00001330,0.00001669,-0.00001292,-0.00000019,-0.00
 001047,-0.00000006,0.00000797,-0.00008799,-0.00008477,0.00007780,0.000
 00452,0.00010956,-0.00005402,0.00001895,-0.00004793,0.00002415,0.00000
 737,0.00001932,0.00000721,0.00000109,0.00000721,0.00000508,0.00001003,
 -0.00000979,-0.00002140,0.00000253,-0.00000044,-0.00000065,0.00011763,
 0.00006273,-0.00006859,-0.00000094,-0.00000120,0.00000214,0.00003213,0
 .00002148,-0.00007722,-0.00000217,0.00006556,-0.00000912,0.00000250,-0
 .00000280,0.00007000,-0.00001601,-0.00001474,0.00000079,-0.00000543,-0
 .00002016,-0.00000638,-0.00000557,0.00001848,0.00000454,-0.00000167,0.
 00000643,-0.00000297,0.00000351,-0.00000175,0.00000818,0.00000640,-0.0
 0000098,0.00001228,-0.00001959,-0.00002782,0.00000568,0.00009445,-0.00
 011811,-0.00001652,-0.00077792,0.00011611,-0.00058299,-0.00063786,-0.0
 0119256,-0.00022749,-0.00012334,0.00000836,0.00008474,0.00006356,0.000
 08865,0.00014254,0.00038105,-0.00025209,-0.00002126,0.00124560,-0.0004
 3936,0.00067566,0.00038569,-0.00032954,-0.00002807,-0.00011229,-0.0000
 3833,-0.00012874,0.00012535,-0.00008662,0.00000756,0.00009296,-0.00003
 727,-0.00019540,-0.00005569,0.00004878,-0.00002112,-0.00003642,0.00005
 640,-0.00000949,-0.00009755,0.00003213,0.00018394,-0.00004836,0.000046
 05,0.00004184,-0.00010826,0.00010300,0.00002975,0.00002888,-0.00003060
 ,-0.00001793,0.00008221,0.00000012,0.00008431,-0.00007278,0.00004403,0
 .00000631,-0.00000633,0.00001707,0.00001037,0.00002937,0.00003070,-0.0
 0001964,-0.00003859,0.00000394,0.00002842,-0.00032808,-0.00357328,-0.0
 1042740,0.00750159,-0.06262103,-0.31419693,-0.00190974,0.00043849,0.00
 083317,0.00019024,0.00050669,0.00055829,0.00038640,-0.00009451,-0.0011
 9068,0.00004279,-0.00409605,-0.01186140,-0.00685789,0.07109158,0.33704
 041,0.,0.,0.,0.,0.,0.,0.00006857,0.00007752,-0.00000559,-0.00004235,-0
 .00010061,-0.00003813,0.,0.,0.,-0.00015248,0.00001672,0.00005424,0.000
 20146,0.00008209,-0.00002186,0.,0.,0.,0.00018487,-0.00008363,-0.000042
 60,-0.00018045,0.00011772,-0.00011081,0.00064932,-0.00017867,0.0024601
 7,-0.00012509,-0.00026184,-0.00038184,0.00008892,0.00016017,0.00003320
 ,0.00001040,-0.00002231,-0.00004669,-0.00026636,0.00012036,-0.00033299
 ,-0.00012689,0.00011945,0.00021290,0.00002756,-0.00002590,-0.00021178,
 0.00032852,0.00031410,-0.00056240,-0.00035524,-0.00003811,0.00008236,0
 .00008863,0.00001680,-0.00003874,-0.00013430,0.00011044,0.00025392,-0.
 00000693,-0.00000312,-0.00000585,0.00027334,-0.00034186,0.00041679,0.0
 0027892,0.00013037,-0.00010793,-0.00002134,-0.00035328,0.00019904,-0.0
 0001912,-0.00002313,0.00000178,-0.00501942,-0.00066714,0.00008155,-0.0
 4813904,-0.01931451,-0.01031166,0.00339094,-0.00319103,-0.00468145,-0.
 00078510,0.00052275,-0.00033531,-0.01027011,-0.02060144,-0.00665354,-0
 .00888630,-0.01004928,-0.01062302,0.00044805,0.00019912,0.00026119,0.0
 0005396,0.00022772,-0.00005590,0.00104584,0.00095180,0.00087361,0.0013
 1427,0.00098047,-0.00058801,0.00024535,0.00009858,0.00014749,0.0002430
 2,0.00009743,-0.00018753,-0.00000507,0.00010513,-0.00015300,-0.0007239
 1,0.00001589,-0.00036104,0.00001229,-0.00009825,0.00010110,-0.00004790
 ,0.00015183,0.00001168,0.00013812,0.00011142,-0.00004720,0.00008477,0.
 00000299,0.00010574,0.00002326,-0.00002688,-0.00006428,-0.00000864,0.0
 0002608,0.00000457,0.00003638,0.00005927,0.00000074,0.00000199,-0.0000
 2925,0.00002015,0.00000908,-0.00000580,0.00000917,0.00001267,-0.000032
 42,-0.00004972,0.00001766,-0.00003443,0.00001611,-0.00039459,-0.000134
 37,-0.00012264,0.00015169,0.00002502,0.00007091,0.00003725,-0.00002075
 ,-0.00000959,0.00007934,0.00004655,0.00000806,0.00001838,-0.00004285,-
 0.00001105,-0.00014239,-0.00012868,0.00009201,0.00000244,-0.00005304,0
 .00003907,-0.00047289,0.00017498,0.00001987,-0.00044704,-0.00075849,0.
 00012831,0.00001133,-0.00016830,-0.00000220,-0.00029393,-0.00006986,-0
 .00034650,0.00008831,-0.00003599,-0.00024609,0.00005483,-0.00001657,0.
 00046059,0.00014260,0.00046217,0.00061766,0.06719138,0.,0.,0.,0.,0.,0.
 ,0.00012039,0.00012747,-0.00001105,-0.00008079,-0.00018633,-0.00006638
 ,0.,0.,0.,-0.00020016,0.00002008,0.00011057,0.00028051,0.00014783,-0.0
 0004994,0.,0.,0.,0.00011676,-0.00005181,0.00002870,-0.00023534,0.00016
 197,-0.00012116,0.00199098,-0.00104849,0.00466663,-0.00037780,-0.00044
 526,-0.00080102,0.00025527,0.00029397,-0.00001865,-0.00002359,-0.00004
 045,-0.00005184,-0.00070856,0.00046639,-0.00052975,0.00004375,0.000012
 44,0.00041181,0.00000121,-0.00000086,-0.00017928,0.00048210,0.00067870
 ,-0.00108300,-0.00051981,-0.00034327,0.00025163,0.00003199,0.00019000,
 -0.00018757,-0.00025413,0.00022292,0.00048253,-0.00000005,-0.00000825,
 0.00000395,0.00052676,-0.00035531,0.00008256,0.00024607,-0.00009659,-0
 .00009050,0.00000643,-0.00061153,0.00039181,-0.00005009,-0.00003640,-0
 .00004746,-0.02430695,-0.00980034,-0.00089603,-0.01830566,-0.04550900,
 -0.00857740,0.00083858,-0.00815668,-0.01303511,0.00164421,-0.00043009,
 0.00016410,-0.00199925,-0.00167531,-0.00157633,-0.01147112,-0.01224584
 ,-0.01338803,-0.00021793,0.00014507,-0.00011747,-0.00029955,0.00003702
 ,-0.00017873,0.00045159,-0.00190699,-0.00041774,0.00117088,0.00181680,
 -0.00011173,-0.00011429,-0.00027922,0.00057343,0.00102985,-0.00053947,
 -0.00000522,0.00016794,0.00018228,0.00032680,-0.00031514,-0.00090059,0
 .00031970,-0.00008990,-0.00039862,0.00040491,0.00004228,0.00019852,-0.
 00002209,-0.00000814,0.00007114,-0.00008954,-0.00013307,-0.00017093,-0
 .00001271,0.00018591,0.00042037,0.00002313,-0.00006380,-0.00009401,0.0
 0002943,0.00005484,0.00001058,-0.00002394,-0.00001174,-0.00000526,-0.0
 0003057,-0.00002055,0.00002207,0.00006494,-0.00001152,-0.00003483,-0.0
 0003818,0.00003084,-0.00006670,0.00000525,-0.00062960,-0.00007490,-0.0
 0021967,0.00037838,-0.00015329,-0.00002873,0.00005721,-0.00011221,0.00
 001738,0.00006245,0.00008281,-0.00002284,-0.00000604,-0.00005561,0.000
 09803,-0.00016548,-0.00018400,-0.00002732,-0.00025978,0.00010146,-0.00
 001970,0.00003223,0.00018236,0.00036262,-0.00025085,-0.00048538,-0.000
 06764,-0.00013482,-0.00028278,-0.00000972,-0.00021939,-0.00056504,-0.0
 0011389,-0.00011873,0.00003497,0.00004802,-0.00002465,0.00004158,0.000
 26225,0.00029845,0.00028531,0.00031565,0.05111867,0.08064183,0.,0.,0.,
 0.,0.,0.,0.00006720,0.00007293,-0.00000215,-0.00005839,-0.00012236,-0.
 00003462,0.,0.,0.,-0.00020003,0.00003263,0.00000534,0.00013427,0.00004
 063,-0.00003217,0.,0.,0.,0.00008943,-0.00003977,0.00001130,-0.00013421
 ,0.00008563,-0.00006064,0.00119640,-0.00032050,0.00249694,-0.00023784,
 -0.00031772,-0.00042832,0.00021688,0.00017680,-0.00009707,-0.00004912,
 -0.00002929,0.00000916,-0.00044669,0.00018164,-0.00021489,0.00002410,-
 0.00000729,0.00025127,-0.00001112,-0.00000546,-0.00007397,0.00014359,0
 .00017530,-0.00045603,-0.00029324,0.00004496,0.00002882,0.00008382,-0.
 00002630,-0.00002696,-0.00013441,0.00016138,0.00028973,-0.00000161,0.0
 0001282,0.00000930,0.00023742,-0.00021982,-0.00006195,0.00016335,0.000
 01197,-0.00012794,0.00011628,-0.00025141,0.00011219,0.00000048,0.00000
 057,0.00000785,-0.01823615,-0.00762543,-0.00401494,-0.01252986,-0.0112
 9011,-0.03294208,0.00115617,-0.00747159,-0.00665830,0.00015883,0.00002
 471,0.00059571,-0.00713025,-0.01408873,-0.00418781,0.00424422,0.004084
 49,0.00596026,0.00005669,0.00027005,0.00010239,-0.00009409,-0.00013818
 ,-0.00012809,0.00070560,-0.00034158,0.00017140,-0.00028686,0.00072888,
 0.00067212,0.00040008,0.00042473,-0.00028410,-0.00052249,0.00043601,-0
 .00039302,-0.00010921,0.00002950,-0.00016294,-0.00020239,0.00056223,-0
 .00121202,0.00006513,0.00021008,-0.00011338,-0.00004805,0.00018944,0.0
 0005653,0.00015727,0.00006148,-0.00010943,0.00015916,0.00002953,0.0001
 1873,-0.00028815,-0.00006446,0.00004431,0.00006912,0.00005075,-0.00000
 489,0.00004280,0.00000082,-0.00001163,0.00000375,0.00007168,-0.0000364
 7,0.00000213,0.00002207,-0.00001864,-0.00004514,0.00000101,-0.00000628
 ,0.00000427,-0.00002950,0.00002661,0.00010298,0.00002981,0.00012557,0.
 00001823,-0.00006771,-0.00003844,0.00000558,-0.00003690,0.00002166,-0.
 00000280,0.00003342,-0.00001209,-0.00000475,-0.00001325,-0.00000518,0.
 00002172,-0.00004355,0.00002652,0.00004050,0.00004119,0.00001116,-0.00
 029455,-0.00046345,-0.00137504,-0.00035244,0.00003680,-0.00083823,0.00
 029145,0.00028947,-0.00012965,0.00100761,0.00077921,-0.00066223,-0.000
 09773,0.00000347,0.00013505,0.00002568,0.00011606,0.00006737,0.0003558
 2,0.00021994,-0.00052789,0.03033243,0.03323511,0.04435072\\0.,0.,0.,0.
 ,0.,0.,-0.00000026,-0.00000024,0.00000005,0.,0.00000005,0.00000007,0.,
 0.,0.,-0.00000032,-0.00000003,0.00000003,0.00000006,0.,0.,0.,0.,0.,0.,
 -0.00000007,0.00000017,0.00000014,-0.00000007,0.00000007,-0.00000004,-
 0.00000012,0.,-0.00000021,0.00000014,0.00000006,0.00000015,0.00000013,
 0.00000009,0.00000006,-0.00000003,-0.00000011,0.00000055,-0.00000029,-
 0.00000006,-0.00000044,0.00000027,-0.00000019,0.00000006,-0.00000003,0
 .00000008,-0.00000020,0.00000011,0.00000013,0.,0.00000050,-0.00000033,
 0.00000007,-0.00000022,0.00000010,0.00000024,0.00000002,0.00000012,-0.
 00000013,-0.00000012,0.,-0.00000043,0.00000026,0.,0.00000002,-0.000000
 05,0.00000005,0.00000088,-0.00000015,-0.00000022,-0.00000027,0.0000000
 4,0.00000002,-0.00000044,-0.00000034,-0.00000066,-0.00000043,0.0000004
 9,-0.00000030,0.00000040,0.00000038,0.00000033,0.00000040,-0.00000061,
 -0.00000041,0.00000027,-0.00000025,0.00000020,-0.00000004,-0.00000008,
 0.00000013,-0.00000026,0.00000031,0.00000028,-0.00000011,-0.00000001,0
 .00000006,0.00000021,0.00000019,0.00000019,-0.00000004,-0.00000004,0.0
 0000013,0.00000030,0.00000011,0.00000010,0.00000022,-0.00000047,-0.000
 00026,0.00000012,0.00000066,-0.00000027,-0.00000008,0.00000004,-0.0000
 0002,-0.00000032,0.00000019,0.00000006,0.00000004,0.00000001,-0.000000
 02,0.00000010,-0.00000013,0.00000008,-0.00000013,-0.00000037,0.0000002
 7,-0.00000073,-0.00000061,-0.00000038,0.00000036,0.00000029,0.00000050
 ,0.00000046,0.00000013,0.00000027,-0.00000004,0.00000010,0.,-0.0000000
 5,-0.00000001,-0.00000005,0.00000003,-0.00000006,-0.00000005,-0.000000
 26,-0.00000009,-0.00000015,0.00000039,0.00000023,-0.00000039,0.0000001
 5,-0.00000005,0.00000036,-0.00000014,0.00000005,0.00000022,-0.00000007
 ,0.00000001,0.,-0.00000030,-0.00000010,-0.00000025,-0.00000006,-0.0000
 0006,-0.00000002,0.00000003,0.00000002,0.00000004,0.00000036,0.0000004
 6,0.00000001,-0.00000051,0.00000024,0.00000034,-0.00000005,-0.00000017
 ,-0.00000015,-0.00000013,-0.00000020,0.00000012,0.00000008,-0.00000032
 ,-0.00000003,0.00000011,0.00000015,-0.00000006,0.00000009,-0.00000004,
 -0.00000025,0.00000004,0.,0.00000005\\\@


 REPARTEE - WHAT YOU THINK OF AFTER YOU BECOME A DEPARTEE.
 Job cpu time:       2 days  8 hours  2 minutes 26.3 seconds.
 Elapsed time:       0 days  0 hours 53 minutes 59.6 seconds.
 File lengths (MBytes):  RWF=   3717 Int=      0 D2E=      0 Chk=     36 Scr=      1
 Normal termination of Gaussian 16 at Sat Oct 12 20:16:29 2019.
