 Entering Gaussian System, Link 0=g16
 Input=Zn_PO_opt_freq2.com
 Output=Zn_PO_opt_freq2.log
 Initial command:
 /apps/commercial/G16/g16.linda/l1.exe "/scratch/x1711a05/Gau-60509.inp" -scrdir="/scratch/x1711a05/"
 Default linda workers: node7760
 Entering Link 1 = /apps/commercial/G16/g16.linda/l1.exe PID=     60510.
  
 Copyright (c) 1988,1990,1992,1993,1995,1998,2003,2009,2016,
            Gaussian, Inc.  All Rights Reserved.
  
 This is part of the Gaussian(R) 16 program.  It is based on
 the Gaussian(R) 09 system (copyright 2009, Gaussian, Inc.),
 the Gaussian(R) 03 system (copyright 2003, Gaussian, Inc.),
 the Gaussian(R) 98 system (copyright 1998, Gaussian, Inc.),
 the Gaussian(R) 94 system (copyright 1995, Gaussian, Inc.),
 the Gaussian 92(TM) system (copyright 1992, Gaussian, Inc.),
 the Gaussian 90(TM) system (copyright 1990, Gaussian, Inc.),
 the Gaussian 88(TM) system (copyright 1988, Gaussian, Inc.),
 the Gaussian 86(TM) system (copyright 1986, Carnegie Mellon
 University), and the Gaussian 82(TM) system (copyright 1983,
 Carnegie Mellon University). Gaussian is a federally registered
 trademark of Gaussian, Inc.
  
 This software contains proprietary and confidential information,
 including trade secrets, belonging to Gaussian, Inc.
  
 This software is provided under written license and may be
 used, copied, transmitted, or stored only in accord with that
 written license.
  
 The following legend is applicable only to US Government
 contracts under FAR:
  
                    RESTRICTED RIGHTS LEGEND
  
 Use, reproduction and disclosure by the US Government is
 subject to restrictions as set forth in subparagraphs (a)
 and (c) of the Commercial Computer Software - Restricted
 Rights clause in FAR 52.227-19.
  
 Gaussian, Inc.
 340 Quinnipiac St., Bldg. 40, Wallingford CT 06492
  
  
 ---------------------------------------------------------------
 Warning -- This program may not be used in any manner that
 competes with the business of Gaussian, Inc. or will provide
 assistance to any competitor of Gaussian, Inc.  The licensee
 of this program is prohibited from giving any competitor of
 Gaussian, Inc. access to this program.  By using this program,
 the user acknowledges that Gaussian, Inc. is engaged in the
 business of creating and licensing software in the field of
 computational chemistry and represents and warrants to the
 licensee that it is not a competitor of Gaussian, Inc. and that
 it will not use this program in any manner prohibited above.
 ---------------------------------------------------------------
  

 Cite this work as:
 Gaussian 16, Revision A.03,
 M. J. Frisch, G. W. Trucks, H. B. Schlegel, G. E. Scuseria, 
 M. A. Robb, J. R. Cheeseman, G. Scalmani, V. Barone, 
 G. A. Petersson, H. Nakatsuji, X. Li, M. Caricato, A. V. Marenich, 
 J. Bloino, B. G. Janesko, R. Gomperts, B. Mennucci, H. P. Hratchian, 
 J. V. Ortiz, A. F. Izmaylov, J. L. Sonnenberg, D. Williams-Young, 
 F. Ding, F. Lipparini, F. Egidi, J. Goings, B. Peng, A. Petrone, 
 T. Henderson, D. Ranasinghe, V. G. Zakrzewski, J. Gao, N. Rega, 
 G. Zheng, W. Liang, M. Hada, M. Ehara, K. Toyota, R. Fukuda, 
 J. Hasegawa, M. Ishida, T. Nakajima, Y. Honda, O. Kitao, H. Nakai, 
 T. Vreven, K. Throssell, J. A. Montgomery, Jr., J. E. Peralta, 
 F. Ogliaro, M. J. Bearpark, J. J. Heyd, E. N. Brothers, K. N. Kudin, 
 V. N. Staroverov, T. A. Keith, R. Kobayashi, J. Normand, 
 K. Raghavachari, A. P. Rendell, J. C. Burant, S. S. Iyengar, 
 J. Tomasi, M. Cossi, J. M. Millam, M. Klene, C. Adamo, R. Cammi, 
 J. W. Ochterski, R. L. Martin, K. Morokuma, O. Farkas, 
 J. B. Foresman, and D. J. Fox, Gaussian, Inc., Wallingford CT, 2016.
 
 ******************************************
 Gaussian 16:  ES64L-G16RevA.03 25-Dec-2016
                 5-Oct-2019 
 ******************************************
 %nprocshared=64
 Will use up to   64 processors via shared memory.
 %mem=64GB
 %chk=Zn_PO_opt_freq2.chk
 SetLPE:    new flags="-opt 'Tsnet.Node.lindarsharg: ssh'  -nodelist 'node7760' -env GAUSS_MDEF=8589934592 -env GAUSS_EXEDIR="/apps/commercial/G16/g16.linda""
 Will use up to    1 processors via Linda.
 ----------------------------------------------------------------------
 # opt=(calcall,tight,cartesian) freq cam-b3lyp/gen nosymm scf=(qc,maxc
 ycle=1024,vshift=100) pseudo=read
 ----------------------------------------------------------------------
 1/7=10,10=4,18=10,26=3,38=1/1,3;
 2/12=2,15=1,17=6,18=5,29=2,40=1/2;
 3/5=7,11=2,16=1,17=8,25=1,30=1,71=2,74=-40,140=1/1,2,3;
 4//1;
 5/5=2,7=1024,8=3,10=100,38=5/8;
 8/6=4,10=90,11=11/1;
 11/6=1,8=1,9=11,15=111,16=1,31=1/1,2,10;
 10/6=1,31=1/2;
 6/7=2,8=2,9=2,10=2,18=1,28=1/1;
 7/7=1,10=1,25=1,30=1/1,2,3,16;
 1/7=10,10=4,18=10,26=3/3(3);
 2/15=1,29=1/2;
 7/7=1,8=1,9=1,25=1,30=1,44=-1/16;
 99/12=1/99;
 2/15=1,29=1/2;
 3/5=7,6=1,11=2,16=1,17=8,25=1,30=1,71=2,74=-40,82=7,140=1/1,2,3;
 4/5=5,16=3,69=1/1;
 5/5=2,7=1024,8=3,10=100,38=5/8;
 8/6=4,10=90,11=11/1;
 11/6=1,8=1,9=11,15=111,16=1,31=1/1,2,10;
 10/6=1,31=1/2;
 7/7=1,10=1,25=1,30=1/1,2,3,16;
 1/7=10,10=4,18=10,26=3/3(-8);
 2/15=1,29=1/2;
 6/7=2,8=2,9=2,10=2,18=1,19=2,28=1/1;
 7/7=1,8=1,9=1,25=1,30=1,44=-1/16;
 99/12=1/99;
 ---------------
 Zn_PO_opt_freq2
 ---------------
 Symbolic Z-matrix:
 Charge =  0 Multiplicity = 1
 Li                   -1   -0.65617  -5.03839  -3.45744 
 N                    -1   -0.28279  -3.67558  -2.19468 
 C                    0    -0.88924  -4.07518  -1.0393 
 Cl                   0    -1.63563  -5.63948  -0.99828 
 N                    -1    2.32823   2.59905  -2.41943 
 C                    0     3.25907   1.62547  -2.29288 
 Cl                   0     4.84904   1.76008  -2.95154 
 N                    -1   -3.32748   2.07508   1.06573 
 C                    0    -3.66691   1.75981  -0.20594 
 Cl                   0    -5.16054   2.2469   -0.92123 
 Zn                   0     0.0708   -0.05352  -0.12842 
 N                    0    -0.10226  -2.05329  -0.66875 
 C                    0    -0.78753  -3.09093  -0.10104 
 Cl                   0    -1.36276  -3.05785   1.51025 
 N                    0    -1.67154   0.86401   0.13316 
 C                    0    -2.66919   1.02317  -0.78706 
 Cl                   0    -2.55583   0.35512  -2.37579 
 N                    0     1.4486    0.87282  -1.25768 
 C                    0     2.74087   0.56988  -1.58839 
 Cl                   0     3.4814   -0.92986  -1.1411 
 C                    0     0.17317  -2.45104  -1.91486 
 H                    0     0.71157  -1.83242  -2.61869 
 C                    0    -2.1391    1.52365   1.22496 
 H                    0    -1.56946   1.57757   2.14357 
 C                    0     1.27201   2.11177  -1.79272 
 H                    0     0.33007   2.6377   -1.70411 
 C                    0     2.04194  -0.77351   2.33522 
 C                    0     2.14071   0.67352   2.13977 
 O                    0     0.91581  -0.02411   1.80909 
 C                    0     1.81698  -1.39246   3.68062 
 H                    0     2.67645   1.07013   1.28212 
 H                    0     2.03773   1.33501   2.99523 
 H                    0     1.19244  -2.28454   3.5906 
 H                    0     1.32421  -0.68813   4.35402 
 H                    0     2.77471  -1.68728   4.11842 
 H                    0     2.51373  -1.39846   1.58018 
 

 GradGradGradGradGradGradGradGradGradGradGradGradGradGradGradGradGradGrad
 Berny optimization.
 Initialization pass.
 No Z-matrix variables, so optimization will use Cartesian coordinates.
 Trust Radius=3.00D-01 FncErr=1.00D-07 GrdErr=1.00D-06 EigMax=2.50D+02 EigMin=1.00D-04
 Number of steps in this run=    118 maximum allowed number of steps=    216.
 GradGradGradGradGradGradGradGradGradGradGradGradGradGradGradGradGradGrad

 ---------------------------------------------------------------------------------------------------
                            Z-MATRIX (ANGSTROMS AND DEGREES)
   CD    Cent   Atom    N1       Length/X        N2       Alpha/Y        N3        Beta/Z          J
 ---------------------------------------------------------------------------------------------------
      1      1  Li      -1  -0.656174         -5.038394         -3.457440
      2      2  N       -1  -0.282792         -3.675582         -2.194684
      3      3  C        0  -0.889238         -4.075176         -1.039304
      4      4  Cl       0  -1.635633         -5.639476         -0.998283
      5      5  N       -1   2.328228          2.599049         -2.419433
      6      6  C        0   3.259066          1.625470         -2.292878
      7      7  Cl       0   4.849035          1.760081         -2.951541
      8      8  N       -1  -3.327483          2.075083          1.065729
      9      9  C        0  -3.666908          1.759812         -0.205944
     10     10  Cl       0  -5.160542          2.246895         -0.921231
     11     11  Zn       0   0.070800         -0.053516         -0.128424
     12     12  N        0  -0.102263         -2.053288         -0.668749
     13     13  C        0  -0.787533         -3.090935         -0.101042
     14     14  Cl       0  -1.362759         -3.057846          1.510252
     15     15  N        0  -1.671536          0.864014          0.133164
     16     16  C        0  -2.669191          1.023170         -0.787056
     17     17  Cl       0  -2.555832          0.355122         -2.375792
     18     18  N        0   1.448600          0.872817         -1.257675
     19     19  C        0   2.740869          0.569882         -1.588394
     20     20  Cl       0   3.481400         -0.929856         -1.141096
     21     21  C        0   0.173165         -2.451041         -1.914860
     22     22  H        0   0.711574         -1.832415         -2.618693
     23     23  C        0  -2.139099          1.523649          1.224964
     24     24  H        0  -1.569459          1.577572          2.143566
     25     25  C        0   1.272009          2.111765         -1.792723
     26     26  H        0   0.330071          2.637701         -1.704111
     27     27  C        0   2.041941         -0.773512          2.335218
     28     28  C        0   2.140709          0.673520          2.139765
     29     29  O        0   0.915807         -0.024114          1.809092
     30     30  C        0   1.816975         -1.392456          3.680619
     31     31  H        0   2.676453          1.070133          1.282118
     32     32  H        0   2.037728          1.335013          2.995231
     33     33  H        0   1.192440         -2.284540          3.590595
     34     34  H        0   1.324213         -0.688134          4.354019
     35     35  H        0   2.774708         -1.687281          4.118424
     36     36  H        0   2.513729         -1.398458          1.580184
 ---------------------------------------------------------------------------------------------------
                         Z-Matrix orientation:                         
 ---------------------------------------------------------------------
 Center     Atomic      Atomic             Coordinates (Angstroms)
 Number     Number       Type             X           Y           Z
 ---------------------------------------------------------------------
      1          3           0       -0.656174   -5.038394   -3.457440
      2          7           0       -0.282792   -3.675582   -2.194684
      3          6           0       -0.889238   -4.075176   -1.039304
      4         17           0       -1.635633   -5.639476   -0.998283
      5          7           0        2.328228    2.599049   -2.419433
      6          6           0        3.259066    1.625470   -2.292878
      7         17           0        4.849035    1.760081   -2.951541
      8          7           0       -3.327483    2.075083    1.065729
      9          6           0       -3.666908    1.759812   -0.205944
     10         17           0       -5.160542    2.246895   -0.921231
     11         30           0        0.070800   -0.053516   -0.128424
     12          7           0       -0.102263   -2.053288   -0.668749
     13          6           0       -0.787533   -3.090935   -0.101042
     14         17           0       -1.362759   -3.057846    1.510252
     15          7           0       -1.671536    0.864014    0.133164
     16          6           0       -2.669191    1.023170   -0.787056
     17         17           0       -2.555832    0.355122   -2.375792
     18          7           0        1.448600    0.872817   -1.257675
     19          6           0        2.740869    0.569882   -1.588394
     20         17           0        3.481400   -0.929856   -1.141096
     21          6           0        0.173165   -2.451041   -1.914860
     22          1           0        0.711574   -1.832415   -2.618693
     23          6           0       -2.139099    1.523649    1.224964
     24          1           0       -1.569459    1.577572    2.143566
     25          6           0        1.272009    2.111765   -1.792723
     26          1           0        0.330071    2.637701   -1.704111
     27          6           0        2.041941   -0.773512    2.335218
     28          6           0        2.140709    0.673520    2.139765
     29          8           0        0.915807   -0.024114    1.809092
     30          6           0        1.816975   -1.392456    3.680619
     31          1           0        2.676453    1.070133    1.282118
     32          1           0        2.037728    1.335013    2.995231
     33          1           0        1.192440   -2.284540    3.590595
     34          1           0        1.324213   -0.688134    4.354019
     35          1           0        2.774708   -1.687281    4.118424
     36          1           0        2.513729   -1.398458    1.580184
 ---------------------------------------------------------------------
                    Distance matrix (angstroms):
                    1          2          3          4          5
     1  Li   0.000000
     2  N    1.895052   0.000000
     3  C    2.613329   1.364681   0.000000
     4  Cl   2.714423   2.668039   1.733731   0.000000
     5  N    8.265268   6.799921   7.536718   9.252305   0.000000
     6  C    7.816162   6.376171   7.160813   8.855139   1.352897
     7  Cl   8.762564   7.513648   8.404442  10.030931   2.709515
     8  N    8.842879   7.278089   6.942758   8.163144   6.663930
     9  C    8.114946   6.704538   6.515905   7.713841   6.445580
    10  Cl   8.932924   7.777523   7.630633   8.638621   7.645279
    11  Zn   6.038199   4.184952   4.233807   5.905211   4.169029
    12  N    4.122435   2.234481   2.201062   3.914149   5.533211
    13  C    3.882687   2.231572   1.363602   2.831850   6.889036
    14  Cl   5.394423   3.908258   2.785573   3.609989   7.814491
    15  N    6.982966   5.287288   5.136367   6.601276   5.052149
    16  C    6.922842   5.454777   5.406015   6.745644   5.488374
    17  Cl   5.819680   4.630992   4.918463   6.219285   5.375049
    18  N    6.649170   4.956172   5.476843   7.210391   2.259049
    19  C    6.818064   5.247292   5.920789   7.619588   2.231237
    20  Cl   6.274158   4.776840   5.385710   6.955929   3.926464
    21  C    3.124380   1.336300   2.129111   3.778622   5.513828
    22  H    3.585043   2.136776   3.176011   4.756976   4.721350
    23  C    8.196608   6.493987   6.167325   7.517092   5.864736
    24  H    8.716442   6.933365   6.522800   7.871555   6.087392
    25  C    7.590385   6.006027   6.596732   8.316685   1.321291
    26  H    7.935318   6.361903   6.855027   8.536618   2.122690
    27  C    7.682703   5.860581   5.556995   6.950855   5.836337
    28  C    8.472144   6.601174   6.468166   7.997626   4.952687
    29  O    7.439791   5.549782   5.270925   6.776687   5.172653
    30  C    8.388159   6.643860   6.066156   7.200681   7.307813
    31  H    8.419259   6.585370   6.676628   8.295370   4.019991
    32  H    9.461204   7.578001   7.356273   8.836585   5.567833
    33  H    7.789473   6.130315   5.382910   6.349125   7.826870
    34  H    9.157816   7.375149   6.742355   7.869156   7.595609
    35  H    8.966305   7.290883   6.762300   7.826343   7.830424
    36  H    6.976752   5.220675   5.060308   6.469307   5.657863
                    6          7          8          9         10
     6  C    0.000000
     7  Cl   1.726256   0.000000
     8  N    7.407093   9.115543   0.000000
     9  C    7.234809   8.947602   1.353424   0.000000
    10  Cl   8.553209  10.225007   2.708807   1.726218   0.000000
    11  Zn   4.203438   5.838720   4.183929   4.155073   5.769521
    12  N    5.241144   6.653441   5.518506   5.240288   6.643908
    13  C    6.589657   7.964207   5.873708   5.641946   6.948982
    14  Cl   7.599902   9.039159   5.514046   5.609301   6.962438
    15  N    5.547642   7.268850   2.253559   2.213359   3.898368
    16  C    6.146096   7.858229   2.229951   1.369588   2.778909
    17  Cl   5.952621   7.558932   3.924000   2.813518   3.532572
    18  N    2.217187   3.901202   5.445605   5.297294   6.758849
    19  C    1.370800   2.778328   6.792267   6.662335   8.104923
    20  Cl   2.811712   3.519076   7.762772   7.694617   9.209954
    21  C    5.126756   6.377462   6.451685   5.949608   7.176791
    22  H    4.307301   5.489572   6.719932   6.156018   7.348734
    23  C    6.444049   8.144514   1.319732   2.106531   3.776024
    24  H    6.557361   8.196981   2.121296   3.154790   4.768317
    25  C    2.105952   3.776461   5.415480   5.199485   6.492724
    26  H    3.154405   4.769417   4.622365   4.357870   5.559898
    27  C    5.353109   6.499899   6.209413   6.742862   8.461860
    28  C    4.669610   5.868308   5.746221   6.356949   8.071770
    29  O    5.003813   6.427850   4.792153   5.314512   7.038051
    30  C    6.846179   7.944647   6.732527   7.423957   9.116339
    31  H    3.664483   4.808327   6.091305   6.551963   8.225449
    32  H    5.435083   6.591527   5.749450   6.555215   8.245320
    33  H    7.360324   8.516407   6.768380   7.374534   9.013926
    34  H    7.299155   8.472859   6.331390   7.190062   8.859724
    35  H    7.232822   8.134589   7.791731   8.489819  10.190390
    36  H    4.969937   5.997212   6.815417   7.166952   8.856642
                   11         12         13         14         15
    11  Zn   0.000000
    12  N    2.078699   0.000000
    13  C    3.156485   1.366967   0.000000
    14  Cl   3.710303   2.710356   1.711212   0.000000
    15  N    1.986460   3.408274   4.059302   4.168057   0.000000
    16  C    3.016720   4.008455   4.575709   4.862004   1.366547
    17  Cl   3.480926   3.838546   4.491846   5.307835   2.708470
    18  N    2.007893   3.363644   4.695681   5.569136   3.416103
    19  C    3.106349   3.976200   5.297492   6.292995   4.745481
    20  Cl   3.664105   3.785215   4.896505   5.918096   5.603076
    21  C    2.991648   1.336735   2.149963   3.802455   4.311254
    22  H    3.126742   2.124476   3.189006   4.780452   4.530194
    23  C    3.033605   4.530930   4.987926   4.655555   1.358588
    24  H    3.242350   4.821299   5.238762   4.683045   2.135720
    25  C    2.983494   4.527649   5.845647   6.676565   3.732342
    26  H    3.129323   4.823304   6.052779   6.755521   3.244684
    27  C    3.236251   3.906310   4.394512   4.182192   4.617407
    28  C    3.155596   4.511558   5.269434   5.156905   4.312302
    29  O    2.113970   3.360612   3.994417   3.805877   3.208091
    30  C    4.398943   4.799706   4.895840   4.194607   5.463131
    31  H    3.168855   4.613340   5.588096   5.779921   4.501954
    32  H    3.943861   5.430000   6.095738   5.750277   4.708705
    33  H    4.479581   4.457774   4.265999   3.384505   5.483574
    34  H    4.697455   5.396914   5.484569   4.574097   5.403637
    35  H    5.293017   5.597138   5.697692   5.079335   6.493111
    36  H    3.270491   3.511398   4.073000   4.217300   4.972835
                   16         17         18         19         20
    16  C    0.000000
    17  Cl   1.727200   0.000000
    18  N    4.147323   4.189710   0.000000
    19  C    5.487838   5.359213   1.367883   0.000000
    20  Cl   6.462927   6.294745   2.719466   1.731380   0.000000
    21  C    4.628290   3.941375   3.620312   3.978148   3.722517
    22  H    4.789450   3.939576   3.116706   3.309167   3.266472
    23  C    2.140024   3.808486   4.411197   5.713033   6.573274
    24  H    3.178886   4.784549   4.601500   5.789809   6.525900
    25  C    4.210637   4.251839   1.361048   2.139323   3.815427
    26  H    3.527502   3.740289   2.136639   3.178241   4.793258
    27  C    5.930550   6.678843   3.996415   4.205703   3.765799
    28  C    5.641248   6.522969   3.472943   3.777579   3.890028
    29  O    4.548516   5.450629   3.239354   3.902127   4.013259
    30  C    6.776508   7.671739   5.445540   5.697969   5.121840
    31  H    5.732329   6.424045   2.827915   2.914488   3.243434
    32  H    6.046323   7.135045   4.318322   4.699942   4.931838
    33  H    6.709469   7.524303   5.791394   6.112879   5.428020
    34  H    6.731010   7.837952   5.826075   6.237130   5.908314
    35  H    7.813214   8.646439   6.100418   6.137076   5.360565
    36  H    6.191185   6.665226   3.787695   3.737090   2.925977
                   21         22         23         24         25
    21  C    0.000000
    22  H    1.080723   0.000000
    23  C    5.568054   5.844930   0.000000
    24  H    5.978067   6.285717   1.082232   0.000000
    25  C    4.694845   4.068522   4.592164   4.884022   0.000000
    26  H    5.095521   4.578640   3.989661   4.420035   1.082455
    27  C    4.936557   5.237594   4.898031   4.313529   5.094852
    28  C    5.483985   5.564626   4.458289   3.818726   4.276406
    29  O    4.506585   4.787164   3.474079   2.975537   4.202610
    30  C    5.927234   6.410679   5.494036   4.759363   6.521812
    31  H    5.374550   5.244222   4.837198   4.362036   3.537246
    32  H    6.474550   6.580838   4.540409   3.714292   4.910618
    33  H    5.601489   6.244270   5.585487   4.963657   6.950823
    34  H    6.612987   7.092490   5.165027   4.288690   6.754598
    35  H    6.614520   7.047434   6.544286   5.781965   7.185577
    36  H    4.336070   4.589842   5.505788   5.083953   5.023946
                   26         27         28         29         30
    26  H    0.000000
    27  C    5.557252   0.000000
    28  C    4.681004   1.463509   0.000000
    29  O    4.446453   1.451407   1.447903   0.000000
    30  C    6.888277   1.497934   2.597555   2.487384   0.000000
    31  H    4.108569   2.215999   1.086224   2.138914   3.543424
    32  H    5.166905   2.209415   1.086278   2.124349   2.820918
    33  H    7.280525   2.140287   3.428446   2.891333   1.092686
    34  H    6.982151   2.144290   2.724645   2.661648   1.091948
    35  H    7.653995   2.133482   3.144905   3.399213   1.093548
    36  H    5.643185   1.087758   2.178386   2.120041   2.212991
                   31         32         33         34         35
    31  H    0.000000
    32  H    1.847400   0.000000
    33  H    4.334189   3.764324   0.000000
    34  H    3.789015   2.539396   1.774456   0.000000
    35  H    3.956971   3.307410   1.771692   1.777002   0.000000
    36  H    2.491839   3.114611   2.563727   3.100592   2.567916
                   36
    36  H    0.000000
 Symmetry turned off by external request.
 Stoichiometry    C12H9Cl6LiN6OZn
 Framework group  C1[X(C12H9Cl6LiN6OZn)]
 Deg. of freedom   102
 Full point group                 C1      NOp   1
 Rotational constants (GHZ):           0.1214311           0.0995023           0.0771360
 General basis read from cards:  (5D, 7F)
 ======================================================================================================
                                       Pseudopotential Parameters
 ======================================================================================================
  Center     Atomic      Valence      Angular      Power
  Number     Number     Electrons     Momentum     of R      Exponent        Coefficient   SO-Coeffient
 ======================================================================================================
    1          3
                                   No pseudopotential on this center.
    2          7
                                   No pseudopotential on this center.
    3          6
                                   No pseudopotential on this center.
    4         17
                                   No pseudopotential on this center.
    5          7
                                   No pseudopotential on this center.
    6          6
                                   No pseudopotential on this center.
    7         17
                                   No pseudopotential on this center.
    8          7
                                   No pseudopotential on this center.
    9          6
                                   No pseudopotential on this center.
   10         17
                                   No pseudopotential on this center.
   11         30           12
                                      F and up 
                                                     1      386.7379660      -18.00000000    0.00000000
                                                     2       72.8587359     -124.35274030    0.00000000
                                                     2       15.9066170      -30.66018220    0.00000000
                                                     2        4.3502340      -10.63589890    0.00000000
                                                     2        1.2842199       -0.76836230    0.00000000
                                      S - F
                                                     0       19.0867858        3.00000000    0.00000000
                                                     1        5.0231080       22.52342250    0.00000000
                                                     2        1.2701744       48.44659420    0.00000000
                                                     2        1.0671287      -44.55601190    0.00000000
                                                     2        0.9264190       12.99839580    0.00000000
                                      P - F
                                                     0       43.4927750        5.00000000    0.00000000
                                                     1       20.8692669       20.74355890    0.00000000
                                                     2       21.7118378       90.30271580    0.00000000
                                                     2        6.3616915       74.66103160    0.00000000
                                                     2        1.2291195        9.88944240    0.00000000
                                      D - F
                                                     2       13.5851800       -4.84903590    0.00000000
                                                     2        9.8373050        3.69133790    0.00000000
                                                     2        0.8373113       -0.50373190    0.00000000
   12          7
                                   No pseudopotential on this center.
   13          6
                                   No pseudopotential on this center.
   14         17
                                   No pseudopotential on this center.
   15          7
                                   No pseudopotential on this center.
   16          6
                                   No pseudopotential on this center.
   17         17
                                   No pseudopotential on this center.
   18          7
                                   No pseudopotential on this center.
   19          6
                                   No pseudopotential on this center.
   20         17
                                   No pseudopotential on this center.
   21          6
                                   No pseudopotential on this center.
   22          1
                                   No pseudopotential on this center.
   23          6
                                   No pseudopotential on this center.
   24          1
                                   No pseudopotential on this center.
   25          6
                                   No pseudopotential on this center.
   26          1
                                   No pseudopotential on this center.
   27          6
                                   No pseudopotential on this center.
   28          6
                                   No pseudopotential on this center.
   29          8
                                   No pseudopotential on this center.
   30          6
                                   No pseudopotential on this center.
   31          1
                                   No pseudopotential on this center.
   32          1
                                   No pseudopotential on this center.
   33          1
                                   No pseudopotential on this center.
   34          1
                                   No pseudopotential on this center.
   35          1
                                   No pseudopotential on this center.
   36          1
                                   No pseudopotential on this center.
 ======================================================================================================
   451 basis functions,   974 primitive gaussians,   479 cartesian basis functions
   124 alpha electrons      124 beta electrons
       nuclear repulsion energy      3589.7335042953 Hartrees.
 NAtoms=   36 NActive=   36 NUniq=   36 SFac= 1.00D+00 NAtFMM=   60 NAOKFM=F Big=F
 Integral buffers will be    131072 words long.
 Raffenetti 2 integral format.
 Two-electron integral symmetry is turned off.
 One-electron integrals computed using PRISM.
   1 Symmetry operations used in ECPInt.
 ECPInt:  NShTT=   10296 NPrTT=   71845 LenC2=    8388 LenP2D=   30219.
 LDataN:  DoStor=T MaxTD1= 5 Len=  102
 NBasis=   451 RedAO= T EigKep=  1.36D-03  NBF=   451
 NBsUse=   451 1.00D-06 EigRej= -1.00D+00 NBFU=   451
 ExpMin= 3.51D-02 ExpMax= 2.52D+04 ExpMxC= 3.78D+03 IAcc=3 IRadAn=         5 AccDes= 0.00D+00
 Harris functional with IExCor=20419 and IRadAn=       5 diagonalized for initial guess.
 HarFok:  IExCor=20419 AccDes= 0.00D+00 IRadAn=         5 IDoV= 1 UseB2=F ITyADJ=14
 ICtDFT=  3500011 ScaDFX=  1.000000  1.000000  1.000000  1.000000
 FoFCou: FMM=F IPFlag=           0 FMFlag=      100000 FMFlg1=           0
         NFxFlg=           0 DoJE=T BraDBF=F KetDBF=T FulRan=T
         wScrn=  0.000000 ICntrl=       500 IOpCl=  0 I1Cent=   200000004 NGrid=           0
         NMat0=    1 NMatS0=      1 NMatT0=    0 NMatD0=    1 NMtDS0=    0 NMtDT0=    0
 Symmetry not used in FoFCou.
 Gradient too large for Newton-Raphson -- use scaled steepest descent instead.
 Gradient too large for Newton-Raphson -- use scaled steepest descent instead.
 Gradient too large for Newton-Raphson -- use scaled steepest descent instead.
 Gradient too large for Newton-Raphson -- use scaled steepest descent instead.
     Accept linear search using points  1 and  2.
 Gradient too large for Newton-Raphson -- use scaled steepest descent instead.
 Gradient too large for Newton-Raphson -- use scaled steepest descent instead.
     Accept linear search using points  1 and  2.
 LinEq1:  Iter=  0 NonCon=     1 RMS=3.24D-05 Max=1.96D-03 NDo=     1
 AX will form     1 AO Fock derivatives at one time.
 LinEq1:  Iter=  1 NonCon=     1 RMS=7.72D-06 Max=2.24D-04 NDo=     1
 LinEq1:  Iter=  2 NonCon=     1 RMS=3.93D-06 Max=1.98D-04 NDo=     1
 LinEq1:  Iter=  3 NonCon=     1 RMS=2.04D-06 Max=9.13D-05 NDo=     1
 LinEq1:  Iter=  4 NonCon=     1 RMS=9.40D-07 Max=4.45D-05 NDo=     1
 LinEq1:  Iter=  5 NonCon=     1 RMS=4.73D-07 Max=2.04D-05 NDo=     1
 LinEq1:  Iter=  6 NonCon=     1 RMS=2.36D-07 Max=9.61D-06 NDo=     1
 LinEq1:  Iter=  7 NonCon=     1 RMS=9.90D-08 Max=4.46D-06 NDo=     1
 LinEq1:  Iter=  8 NonCon=     1 RMS=5.02D-08 Max=1.51D-06 NDo=     1
 LinEq1:  Iter=  9 NonCon=     1 RMS=2.02D-08 Max=6.53D-07 NDo=     1
 LinEq1:  Iter= 10 NonCon=     1 RMS=1.13D-08 Max=3.63D-07 NDo=     1
 LinEq1:  Iter= 11 NonCon=     0 RMS=5.87D-09 Max=1.94D-07 NDo=     1
 Linear equations converged to 2.848D-08 2.848D-07 after    11 iterations.
     Accept linear search using points  1 and  2.
     Minimum is close to point  2 DX= -2.12D-06 DF=  0.00D+00 DXR=  2.12D-06 DFR=  0.00D+00 which will be used.
 LinEq1:  Iter=  0 NonCon=     1 RMS=4.51D-08 Max=1.82D-06 NDo=     1
 LinEq1:  Iter=  1 NonCon=     1 RMS=2.63D-08 Max=1.27D-06 NDo=     1
 LinEq1:  Iter=  2 NonCon=     1 RMS=1.40D-08 Max=4.80D-07 NDo=     1
 LinEq1:  Iter=  3 NonCon=     1 RMS=6.04D-09 Max=2.31D-07 NDo=     1
 LinEq1:  Iter=  4 NonCon=     1 RMS=3.25D-09 Max=1.67D-07 NDo=     1
 LinEq1:  Iter=  5 NonCon=     1 RMS=1.60D-09 Max=7.70D-08 NDo=     1
 LinEq1:  Iter=  6 NonCon=     1 RMS=7.76D-10 Max=3.58D-08 NDo=     1
 LinEq1:  Iter=  7 NonCon=     1 RMS=5.34D-10 Max=4.00D-08 NDo=     1
 LinEq1:  Iter=  8 NonCon=     1 RMS=2.67D-10 Max=1.52D-08 NDo=     1
 LinEq1:  Iter=  9 NonCon=     1 RMS=9.15D-11 Max=3.68D-09 NDo=     1
 LinEq1:  Iter= 10 NonCon=     1 RMS=4.58D-11 Max=1.36D-09 NDo=     1
 LinEq1:  Iter= 11 NonCon=     0 RMS=2.14D-11 Max=5.46D-10 NDo=     1
 Linear equations converged to 9.485D-11 9.485D-10 after    11 iterations.
 SCF Done:  E(RCAM-B3LYP) =  -3700.28480415     a.u. after    9 cycles
            Convg  =    0.2077D-09                    42 Fock formations.
              S**2 =  0.0000                  -V/T =  1.9896
 DoSCS=F DFT=T ScalE2(SS,OS)=  1.000000  1.000000
 Range of M.O.s used for correlation:     1   451
 NBasis=   451 NAE=   124 NBE=   124 NFC=     0 NFV=     0
 NROrb=    451 NOA=   124 NOB=   124 NVA=   327 NVB=   327
   1 Symmetry operations used in ECPInt.
 ECPInt:  NShTT=   10296 NPrTT=   71845 LenC2=    8388 LenP2D=   30219.
 LDataN:  DoStor=T MaxTD1= 6 Len=  172
 Number of processors reduced to  25 by ecpmxn.
 Symmetrizing basis deriv contribution to polar:
 IMax=3 JMax=2 DiffMx= 0.00D+00
 G2DrvN: will do    37 centers at a time, making    1 passes.
 Calling FoFCou, ICntrl=  3107 FMM=F I1Cent=   0 AccDes= 0.00D+00.
 End of G2Drv F.D. properties file   721 does not exist.
 End of G2Drv F.D. properties file   722 does not exist.
 End of G2Drv F.D. properties file   788 does not exist.
          IDoAtm=001101101111111111111111111111111111
          Differentiating once with respect to electric field.
                with respect to dipole field.
          Differentiating once with respect to nuclear coordinates.
 CalDSu exits because no D1Ps are significant.
          There are    99 degrees of freedom in the 1st order CPHF.  IDoFFX=6 NUNeed=     3.
     99 vectors produced by pass  0 Test12= 4.10D-14 1.01D-09 XBig12= 1.16D+02 2.85D+00.
 AX will form    99 AO Fock derivatives at one time.
     99 vectors produced by pass  1 Test12= 4.10D-14 1.01D-09 XBig12= 1.67D+01 7.85D-01.
     99 vectors produced by pass  2 Test12= 4.10D-14 1.01D-09 XBig12= 4.07D-01 7.04D-02.
     99 vectors produced by pass  3 Test12= 4.10D-14 1.01D-09 XBig12= 1.06D-02 1.45D-02.
     99 vectors produced by pass  4 Test12= 4.10D-14 1.01D-09 XBig12= 1.02D-04 1.81D-03.
     99 vectors produced by pass  5 Test12= 4.10D-14 1.01D-09 XBig12= 5.69D-07 1.17D-04.
     87 vectors produced by pass  6 Test12= 4.10D-14 1.01D-09 XBig12= 2.58D-09 4.90D-06.
     47 vectors produced by pass  7 Test12= 4.10D-14 1.01D-09 XBig12= 1.09D-11 3.41D-07.
      3 vectors produced by pass  8 Test12= 4.10D-14 1.01D-09 XBig12= 4.64D-14 2.09D-08.
      3 vectors produced by pass  9 Test12= 4.10D-14 1.01D-09 XBig12= 1.97D-16 1.33D-09.
 InvSVY:  IOpt=1 It=  1 EMax= 2.72D-15
 Solved reduced A of dimension   734 with    99 vectors.
 Isotropic polarizability for W=    0.000000      231.21 Bohr**3.
 End of Minotr F.D. properties file   721 does not exist.
 End of Minotr F.D. properties file   722 does not exist.
 End of Minotr F.D. properties file   788 does not exist.

 **********************************************************************

            Population analysis using the SCF density.

 **********************************************************************

 Alpha  occ. eigenvalues -- -101.66788-101.63659-101.60998-101.59469-101.57890
 Alpha  occ. eigenvalues -- -101.56831 -19.29016 -14.45349 -14.45251 -14.40852
 Alpha  occ. eigenvalues --  -14.39944 -14.36519 -14.35636 -10.36841 -10.36679
 Alpha  occ. eigenvalues --  -10.35421 -10.34788 -10.34451 -10.31320 -10.30176
 Alpha  occ. eigenvalues --  -10.30170 -10.29017 -10.28254 -10.28033 -10.27526
 Alpha  occ. eigenvalues --   -9.59998  -9.56840  -9.54169  -9.52647  -9.51155
 Alpha  occ. eigenvalues --   -9.50096  -7.36398  -7.35502  -7.35384  -7.33315
 Alpha  occ. eigenvalues --   -7.32255  -7.32246  -7.30589  -7.29624  -7.29606
 Alpha  occ. eigenvalues --   -7.29074  -7.28099  -7.28073  -7.27592  -7.26590
 Alpha  occ. eigenvalues --   -7.26571  -7.26533  -7.25529  -7.25514  -2.16905
 Alpha  occ. eigenvalues --   -1.20240  -1.14134  -1.07684  -1.06789  -1.01648
 Alpha  occ. eigenvalues --   -0.99323  -0.95298  -0.94453  -0.94089  -0.93460
 Alpha  occ. eigenvalues --   -0.92350  -0.88415  -0.87365  -0.86490  -0.83008
 Alpha  occ. eigenvalues --   -0.78888  -0.76771  -0.75816  -0.71294  -0.71018
 Alpha  occ. eigenvalues --   -0.69532  -0.69224  -0.69126  -0.68519  -0.68442
 Alpha  occ. eigenvalues --   -0.67475  -0.64126  -0.63109  -0.62577  -0.61930
 Alpha  occ. eigenvalues --   -0.61334  -0.60360  -0.57882  -0.56253  -0.55938
 Alpha  occ. eigenvalues --   -0.54926  -0.54261  -0.52948  -0.52363  -0.50906
 Alpha  occ. eigenvalues --   -0.49925  -0.48933  -0.48539  -0.48392  -0.47579
 Alpha  occ. eigenvalues --   -0.47382  -0.46678  -0.46573  -0.45784  -0.45401
 Alpha  occ. eigenvalues --   -0.45052  -0.44740  -0.44240  -0.41840  -0.41533
 Alpha  occ. eigenvalues --   -0.40941  -0.40689  -0.40533  -0.39624  -0.39316
 Alpha  occ. eigenvalues --   -0.38793  -0.38688  -0.37762  -0.37682  -0.36560
 Alpha  occ. eigenvalues --   -0.35234  -0.34222  -0.31500  -0.30880  -0.30632
 Alpha  occ. eigenvalues --   -0.30556  -0.29533  -0.25082  -0.23945
 Alpha virt. eigenvalues --   -0.06423  -0.00689   0.00082   0.04015   0.04439
 Alpha virt. eigenvalues --    0.04723   0.06413   0.07107   0.07991   0.08537
 Alpha virt. eigenvalues --    0.09467   0.09924   0.10179   0.10901   0.11214
 Alpha virt. eigenvalues --    0.11703   0.12115   0.12404   0.12724   0.12920
 Alpha virt. eigenvalues --    0.13467   0.13685   0.14677   0.15025   0.15074
 Alpha virt. eigenvalues --    0.17060   0.17294   0.19507   0.19737   0.20404
 Alpha virt. eigenvalues --    0.20663   0.21597   0.22931   0.23850   0.24607
 Alpha virt. eigenvalues --    0.25148   0.26569   0.27406   0.27932   0.28156
 Alpha virt. eigenvalues --    0.29607   0.31199   0.32294   0.33045   0.33627
 Alpha virt. eigenvalues --    0.34400   0.35313   0.36279   0.38442   0.38918
 Alpha virt. eigenvalues --    0.39547   0.40574   0.41215   0.41923   0.42321
 Alpha virt. eigenvalues --    0.42698   0.43076   0.44175   0.45869   0.46306
 Alpha virt. eigenvalues --    0.46940   0.47131   0.48028   0.48166   0.48427
 Alpha virt. eigenvalues --    0.49198   0.49427   0.49482   0.50301   0.51293
 Alpha virt. eigenvalues --    0.51589   0.51832   0.52740   0.53632   0.54289
 Alpha virt. eigenvalues --    0.55058   0.55489   0.56070   0.56949   0.57556
 Alpha virt. eigenvalues --    0.57906   0.59150   0.60792   0.61258   0.61604
 Alpha virt. eigenvalues --    0.63445   0.63993   0.64254   0.64604   0.65360
 Alpha virt. eigenvalues --    0.65853   0.66375   0.67441   0.68060   0.68550
 Alpha virt. eigenvalues --    0.68698   0.69342   0.69928   0.70434   0.71319
 Alpha virt. eigenvalues --    0.71808   0.72288   0.72866   0.73616   0.74383
 Alpha virt. eigenvalues --    0.75604   0.76212   0.76677   0.76961   0.78446
 Alpha virt. eigenvalues --    0.79417   0.79728   0.82253   0.82958   0.83471
 Alpha virt. eigenvalues --    0.84908   0.85620   0.86345   0.86913   0.87602
 Alpha virt. eigenvalues --    0.88641   0.89420   0.89624   0.89643   0.89831
 Alpha virt. eigenvalues --    0.90360   0.90767   0.90838   0.91174   0.91287
 Alpha virt. eigenvalues --    0.92053   0.92151   0.92893   0.93073   0.93432
 Alpha virt. eigenvalues --    0.94267   0.94577   0.94994   0.95407   0.95745
 Alpha virt. eigenvalues --    0.96189   0.96225   0.96883   0.97208   0.97872
 Alpha virt. eigenvalues --    0.98767   0.99209   0.99747   1.00061   1.00416
 Alpha virt. eigenvalues --    1.00968   1.02235   1.02693   1.03241   1.03585
 Alpha virt. eigenvalues --    1.03749   1.04607   1.05256   1.06868   1.07035
 Alpha virt. eigenvalues --    1.07448   1.08047   1.08599   1.09856   1.10889
 Alpha virt. eigenvalues --    1.10987   1.11928   1.12391   1.13487   1.13572
 Alpha virt. eigenvalues --    1.15317   1.15679   1.17192   1.18292   1.19282
 Alpha virt. eigenvalues --    1.20439   1.20972   1.23341   1.24853   1.26836
 Alpha virt. eigenvalues --    1.28735   1.30700   1.33456   1.33869   1.34396
 Alpha virt. eigenvalues --    1.36432   1.37807   1.38874   1.39396   1.41074
 Alpha virt. eigenvalues --    1.41860   1.43776   1.45331   1.46056   1.46637
 Alpha virt. eigenvalues --    1.47215   1.48014   1.48515   1.49569   1.50071
 Alpha virt. eigenvalues --    1.50943   1.53900   1.55507   1.57936   1.59491
 Alpha virt. eigenvalues --    1.61249   1.61687   1.62360   1.63273   1.64327
 Alpha virt. eigenvalues --    1.65452   1.66965   1.67291   1.67920   1.68138
 Alpha virt. eigenvalues --    1.68749   1.69331   1.69925   1.72401   1.73195
 Alpha virt. eigenvalues --    1.74740   1.75931   1.79551   1.83694   1.85763
 Alpha virt. eigenvalues --    1.87393   1.91204   1.91891   1.93074   1.94950
 Alpha virt. eigenvalues --    1.96335   1.97394   1.98818   1.99512   2.03014
 Alpha virt. eigenvalues --    2.04653   2.05890   2.07276   2.08254   2.08733
 Alpha virt. eigenvalues --    2.08808   2.08943   2.09809   2.12297   2.12572
 Alpha virt. eigenvalues --    2.13298   2.14956   2.16254   2.18181   2.18336
 Alpha virt. eigenvalues --    2.19863   2.21840   2.22887   2.24399   2.25026
 Alpha virt. eigenvalues --    2.26134   2.28144   2.29548   2.30466   2.32143
 Alpha virt. eigenvalues --    2.33486   2.33966   2.34926   2.35587   2.35872
 Alpha virt. eigenvalues --    2.36911   2.38121   2.38616   2.39589   2.39926
 Alpha virt. eigenvalues --    2.40625   2.41320   2.41956   2.44728   2.48281
 Alpha virt. eigenvalues --    2.49286   2.53693   2.61910   2.62695   2.62714
 Alpha virt. eigenvalues --    2.64929   2.65415   2.66013   2.67873   2.68766
 Alpha virt. eigenvalues --    2.69808   2.69892   2.70820   2.71442   2.71539
 Alpha virt. eigenvalues --    2.71933   2.74034   2.74914   2.75368   2.76477
 Alpha virt. eigenvalues --    2.77997   2.82521   2.83635   2.84672   2.87684
 Alpha virt. eigenvalues --    2.88746   2.88805   2.89624   2.90082   2.90685
 Alpha virt. eigenvalues --    2.91579   2.94130   2.96997   2.97195   2.97319
 Alpha virt. eigenvalues --    3.01872   3.04572   3.05146   3.08652   3.17787
 Alpha virt. eigenvalues --    3.24198   3.25149   3.25649   3.35873   3.45139
 Alpha virt. eigenvalues --    3.49343   3.50114   3.57342   3.59314   3.61800
 Alpha virt. eigenvalues --    3.62180   9.24418
          Condensed to atoms (all electrons):
               1          2          3          4          5          6
     1  Li   2.118806   0.216023  -0.035411   0.071218  -0.000009   0.000011
     2  N    0.216023   6.703460   0.340387  -0.080138  -0.000000  -0.000000
     3  C   -0.035411   0.340387   5.102570   0.230497   0.000000  -0.000000
     4  Cl   0.071218  -0.080138   0.230497  16.761251   0.000000   0.000000
     5  N   -0.000009  -0.000000   0.000000   0.000000   6.578243   0.469934
     6  C    0.000011  -0.000000  -0.000000   0.000000   0.469934   4.941798
     7  Cl  -0.000000   0.000000   0.000000  -0.000000  -0.053173   0.258838
     8  N   -0.000005   0.000000  -0.000000   0.000000  -0.000000  -0.000000
     9  C    0.000003  -0.000000   0.000000  -0.000000  -0.000000   0.000000
    10  Cl   0.000001   0.000000  -0.000000   0.000000   0.000000   0.000000
    11  Zn  -0.000212   0.002825   0.001973   0.000041   0.006002   0.000103
    12  N    0.002458  -0.070201  -0.083433   0.003434  -0.000001  -0.000004
    13  C    0.008273  -0.070949   0.548426  -0.055339  -0.000000   0.000000
    14  Cl  -0.000184   0.003050  -0.074513   0.006742  -0.000000  -0.000000
    15  N   -0.000161   0.000001  -0.000006   0.000000   0.000022  -0.000001
    16  C   -0.000138  -0.000000   0.000001  -0.000000   0.000003  -0.000001
    17  Cl   0.002532  -0.000149  -0.000016  -0.000003  -0.000004   0.000004
    18  N   -0.000352   0.000032   0.000001   0.000000  -0.090243  -0.086122
    19  C    0.000014   0.000007  -0.000001  -0.000000  -0.076815   0.565169
    20  Cl   0.000981  -0.000085  -0.000014   0.000000   0.004581  -0.060270
    21  C   -0.009328   0.492514  -0.095333   0.006476  -0.000000  -0.000019
    22  H    0.000591  -0.035744   0.004371  -0.000148  -0.000017  -0.000012
    23  C   -0.000010   0.000000  -0.000000  -0.000000   0.000001   0.000000
    24  H    0.000001  -0.000000  -0.000000   0.000000  -0.000000   0.000000
    25  C   -0.000048   0.000000   0.000000   0.000000   0.561248  -0.109409
    26  H    0.000005  -0.000000   0.000000  -0.000000  -0.036504   0.005562
    27  C    0.000012  -0.000000   0.000001  -0.000000   0.000001   0.000001
    28  C    0.000004   0.000000   0.000000  -0.000000   0.000009  -0.000123
    29  O   -0.000081  -0.000000   0.000002   0.000000   0.000000   0.000000
    30  C   -0.000007   0.000000  -0.000000  -0.000000  -0.000000   0.000000
    31  H    0.000004  -0.000000  -0.000000  -0.000000  -0.000177   0.000503
    32  H   -0.000001  -0.000000   0.000000   0.000000  -0.000001   0.000001
    33  H   -0.000002   0.000000  -0.000002   0.000000  -0.000000  -0.000000
    34  H    0.000001  -0.000000  -0.000000  -0.000000  -0.000000   0.000000
    35  H    0.000000   0.000000   0.000000  -0.000000  -0.000000  -0.000000
    36  H    0.000084  -0.000001  -0.000007  -0.000000  -0.000000   0.000005
               7          8          9         10         11         12
     1  Li  -0.000000  -0.000005   0.000003   0.000001  -0.000212   0.002458
     2  N    0.000000   0.000000  -0.000000   0.000000   0.002825  -0.070201
     3  C    0.000000  -0.000000   0.000000  -0.000000   0.001973  -0.083433
     4  Cl  -0.000000   0.000000  -0.000000   0.000000   0.000041   0.003434
     5  N   -0.053173  -0.000000  -0.000000   0.000000   0.006002  -0.000001
     6  C    0.258838  -0.000000   0.000000   0.000000   0.000103  -0.000004
     7  Cl  16.874872   0.000000  -0.000000  -0.000000  -0.000124   0.000000
     8  N    0.000000   6.574628   0.468967  -0.053335   0.004651  -0.000000
     9  C   -0.000000   0.468967   4.939793   0.257811   0.000104  -0.000008
    10  Cl  -0.000000  -0.053335   0.257811  16.878324  -0.000273   0.000000
    11  Zn  -0.000124   0.004651   0.000104  -0.000273  10.354562   0.156137
    12  N    0.000000  -0.000000  -0.000008   0.000000   0.156137   6.765056
    13  C   -0.000000  -0.000000  -0.000001  -0.000000  -0.019256   0.416753
    14  Cl  -0.000000  -0.000001  -0.000001  -0.000000   0.004526  -0.058603
    15  N    0.000000  -0.092042  -0.080925   0.003604   0.220584  -0.005763
    16  C   -0.000000  -0.073000   0.566981  -0.075875  -0.023968  -0.000453
    17  Cl   0.000000   0.004675  -0.060446   0.007537   0.013997  -0.001347
    18  N    0.003621   0.000000   0.000003   0.000000   0.203196  -0.006590
    19  C   -0.077210   0.000000   0.000000  -0.000000  -0.023115  -0.000540
    20  Cl   0.007896  -0.000000  -0.000000  -0.000000   0.005828  -0.000982
    21  C    0.000000  -0.000000  -0.000001   0.000000  -0.014142   0.470686
    22  H   -0.000003  -0.000000  -0.000000  -0.000000  -0.004593  -0.038387
    23  C    0.000000   0.567595  -0.109509   0.005905  -0.009209  -0.000005
    24  H   -0.000000  -0.038433   0.005693  -0.000137  -0.000332  -0.000007
    25  C    0.005724  -0.000002  -0.000023   0.000000  -0.011386   0.000106
    26  H   -0.000124  -0.000014   0.000016  -0.000003  -0.002037  -0.000002
    27  C   -0.000000  -0.000000   0.000000  -0.000000  -0.009100   0.000061
    28  C    0.000002  -0.000000   0.000000  -0.000000  -0.007752   0.000075
    29  O    0.000000   0.000015  -0.000002   0.000000   0.114730  -0.003015
    30  C   -0.000000   0.000000   0.000000   0.000000  -0.001016  -0.000032
    31  H   -0.000017   0.000000   0.000000  -0.000000  -0.004672  -0.000004
    32  H   -0.000000  -0.000000   0.000000  -0.000000  -0.001141  -0.000004
    33  H   -0.000000  -0.000000   0.000000  -0.000000   0.001317  -0.000007
    34  H   -0.000000   0.000000  -0.000000  -0.000000   0.000479  -0.000000
    35  H   -0.000000   0.000000  -0.000000  -0.000000   0.000231  -0.000000
    36  H    0.000000  -0.000000  -0.000000  -0.000000  -0.001463   0.000299
              13         14         15         16         17         18
     1  Li   0.008273  -0.000184  -0.000161  -0.000138   0.002532  -0.000352
     2  N   -0.070949   0.003050   0.000001  -0.000000  -0.000149   0.000032
     3  C    0.548426  -0.074513  -0.000006   0.000001  -0.000016   0.000001
     4  Cl  -0.055339   0.006742   0.000000  -0.000000  -0.000003   0.000000
     5  N   -0.000000  -0.000000   0.000022   0.000003  -0.000004  -0.090243
     6  C    0.000000  -0.000000  -0.000001  -0.000001   0.000004  -0.086122
     7  Cl  -0.000000  -0.000000   0.000000  -0.000000   0.000000   0.003621
     8  N   -0.000000  -0.000001  -0.092042  -0.073000   0.004675   0.000000
     9  C   -0.000001  -0.000001  -0.080925   0.566981  -0.060446   0.000003
    10  Cl  -0.000000  -0.000000   0.003604  -0.075875   0.007537   0.000000
    11  Zn  -0.019256   0.004526   0.220584  -0.023968   0.013997   0.203196
    12  N    0.416753  -0.058603  -0.005763  -0.000453  -0.001347  -0.006590
    13  C    4.923368   0.283130  -0.000321   0.000161   0.000043   0.000060
    14  Cl   0.283130  16.776635  -0.000231   0.000020  -0.000048   0.000002
    15  N   -0.000321  -0.000231   6.880390   0.393046  -0.066218  -0.006476
    16  C    0.000161   0.000020   0.393046   5.032064   0.236396  -0.000128
    17  Cl   0.000043  -0.000048  -0.066218   0.236396  16.880012  -0.000600
    18  N    0.000060   0.000002  -0.006476  -0.000128  -0.000600   6.901837
    19  C    0.000004   0.000000   0.000083  -0.000001  -0.000037   0.394551
    20  Cl  -0.000017  -0.000004   0.000005   0.000000  -0.000003  -0.064360
    21  C   -0.093640   0.005267  -0.000108  -0.000098   0.001075   0.000078
    22  H    0.004859  -0.000091  -0.000014   0.000001  -0.000214   0.002216
    23  C   -0.000032  -0.000034   0.410814  -0.103920   0.006525  -0.000035
    24  H   -0.000001  -0.000036  -0.055737   0.005256  -0.000099  -0.000022
    25  C   -0.000001   0.000000   0.000023  -0.000252   0.000125   0.406418
    26  H   -0.000000  -0.000000   0.000890   0.001432  -0.000401  -0.053688
    27  C    0.000073   0.000363   0.000158   0.000001   0.000000  -0.000076
    28  C    0.000016   0.000060   0.000047  -0.000002   0.000000  -0.001483
    29  O   -0.000369  -0.000025  -0.004121   0.000054   0.000004  -0.005720
    30  C   -0.000008  -0.001140  -0.000002  -0.000000   0.000000  -0.000009
    31  H   -0.000001  -0.000001  -0.000032  -0.000001  -0.000000   0.003021
    32  H    0.000000  -0.000001   0.000001   0.000000   0.000000   0.000019
    33  H   -0.000080   0.002639  -0.000001   0.000000  -0.000000  -0.000000
    34  H    0.000001  -0.000013   0.000000  -0.000000   0.000000  -0.000000
    35  H    0.000000   0.000021   0.000000  -0.000000   0.000000   0.000000
    36  H    0.000121  -0.000137  -0.000001  -0.000000  -0.000000   0.000146
              19         20         21         22         23         24
     1  Li   0.000014   0.000981  -0.009328   0.000591  -0.000010   0.000001
     2  N    0.000007  -0.000085   0.492514  -0.035744   0.000000  -0.000000
     3  C   -0.000001  -0.000014  -0.095333   0.004371  -0.000000  -0.000000
     4  Cl  -0.000000   0.000000   0.006476  -0.000148  -0.000000   0.000000
     5  N   -0.076815   0.004581  -0.000000  -0.000017   0.000001  -0.000000
     6  C    0.565169  -0.060270  -0.000019  -0.000012   0.000000   0.000000
     7  Cl  -0.077210   0.007896   0.000000  -0.000003   0.000000  -0.000000
     8  N    0.000000  -0.000000  -0.000000  -0.000000   0.567595  -0.038433
     9  C    0.000000  -0.000000  -0.000001  -0.000000  -0.109509   0.005693
    10  Cl  -0.000000  -0.000000   0.000000  -0.000000   0.005905  -0.000137
    11  Zn  -0.023115   0.005828  -0.014142  -0.004593  -0.009209  -0.000332
    12  N   -0.000540  -0.000982   0.470686  -0.038387  -0.000005  -0.000007
    13  C    0.000004  -0.000017  -0.093640   0.004859  -0.000032  -0.000001
    14  Cl   0.000000  -0.000004   0.005267  -0.000091  -0.000034  -0.000036
    15  N    0.000083   0.000005  -0.000108  -0.000014   0.410814  -0.055737
    16  C   -0.000001   0.000000  -0.000098   0.000001  -0.103920   0.005256
    17  Cl  -0.000037  -0.000003   0.001075  -0.000214   0.006525  -0.000099
    18  N    0.394551  -0.064360   0.000078   0.002216  -0.000035  -0.000022
    19  C    5.076750   0.225566  -0.000557   0.002087  -0.000003   0.000000
    20  Cl   0.225566  16.908430   0.000648  -0.000723  -0.000000  -0.000000
    21  C   -0.000557   0.000648   4.604201   0.393427  -0.000002   0.000000
    22  H    0.002087  -0.000723   0.393427   0.511882  -0.000000   0.000000
    23  C   -0.000003  -0.000000  -0.000002  -0.000000   4.664813   0.392318
    24  H    0.000000  -0.000000   0.000000   0.000000   0.392318   0.590126
    25  C   -0.104760   0.006296  -0.000005  -0.000143   0.000013  -0.000020
    26  H    0.005288  -0.000089  -0.000003   0.000002  -0.000208  -0.000001
    27  C    0.000308  -0.004986  -0.000003   0.000000  -0.000009  -0.000035
    28  C   -0.002110   0.000268  -0.000001   0.000001  -0.000008   0.000026
    29  O   -0.000012  -0.000110  -0.000027  -0.000011   0.000114   0.001498
    30  C    0.000003   0.000136  -0.000000  -0.000000  -0.000001  -0.000000
    31  H    0.005715  -0.001245  -0.000000   0.000001  -0.000011  -0.000000
    32  H    0.000037   0.000010  -0.000000  -0.000000  -0.000014  -0.000014
    33  H    0.000000  -0.000001   0.000000   0.000000  -0.000001  -0.000001
    34  H   -0.000000  -0.000002   0.000000   0.000000  -0.000003   0.000016
    35  H    0.000000  -0.000001  -0.000000   0.000000   0.000000   0.000000
    36  H   -0.000416   0.008220   0.000010   0.000011  -0.000000   0.000002
              25         26         27         28         29         30
     1  Li  -0.000048   0.000005   0.000012   0.000004  -0.000081  -0.000007
     2  N    0.000000  -0.000000  -0.000000   0.000000  -0.000000   0.000000
     3  C    0.000000   0.000000   0.000001   0.000000   0.000002  -0.000000
     4  Cl   0.000000  -0.000000  -0.000000  -0.000000   0.000000  -0.000000
     5  N    0.561248  -0.036504   0.000001   0.000009   0.000000  -0.000000
     6  C   -0.109409   0.005562   0.000001  -0.000123   0.000000   0.000000
     7  Cl   0.005724  -0.000124  -0.000000   0.000002   0.000000  -0.000000
     8  N   -0.000002  -0.000014  -0.000000  -0.000000   0.000015   0.000000
     9  C   -0.000023   0.000016   0.000000   0.000000  -0.000002   0.000000
    10  Cl   0.000000  -0.000003  -0.000000  -0.000000   0.000000   0.000000
    11  Zn  -0.011386  -0.002037  -0.009100  -0.007752   0.114730  -0.001016
    12  N    0.000106  -0.000002   0.000061   0.000075  -0.003015  -0.000032
    13  C   -0.000001  -0.000000   0.000073   0.000016  -0.000369  -0.000008
    14  Cl   0.000000  -0.000000   0.000363   0.000060  -0.000025  -0.001140
    15  N    0.000023   0.000890   0.000158   0.000047  -0.004121  -0.000002
    16  C   -0.000252   0.001432   0.000001  -0.000002   0.000054  -0.000000
    17  Cl   0.000125  -0.000401   0.000000   0.000000   0.000004   0.000000
    18  N    0.406418  -0.053688  -0.000076  -0.001483  -0.005720  -0.000009
    19  C   -0.104760   0.005288   0.000308  -0.002110  -0.000012   0.000003
    20  Cl   0.006296  -0.000089  -0.004986   0.000268  -0.000110   0.000136
    21  C   -0.000005  -0.000003  -0.000003  -0.000001  -0.000027  -0.000000
    22  H   -0.000143   0.000002   0.000000   0.000001  -0.000011  -0.000000
    23  C    0.000013  -0.000208  -0.000009  -0.000008   0.000114  -0.000001
    24  H   -0.000020  -0.000001  -0.000035   0.000026   0.001498  -0.000000
    25  C    4.675746   0.396218   0.000006   0.000261  -0.000219  -0.000000
    26  H    0.396218   0.554198   0.000001  -0.000010  -0.000020  -0.000000
    27  C    0.000006   0.000001   4.753583   0.341926   0.135865   0.392386
    28  C    0.000261  -0.000010   0.341926   4.826608   0.141586  -0.032590
    29  O   -0.000219  -0.000020   0.135865   0.141586   8.249048  -0.030123
    30  C   -0.000000  -0.000000   0.392386  -0.032590  -0.030123   4.892751
    31  H   -0.000366   0.000021  -0.019040   0.385908  -0.024065   0.001284
    32  H   -0.000025  -0.000001  -0.021901   0.390379  -0.026072  -0.002482
    33  H   -0.000000   0.000000  -0.027438   0.004089  -0.002868   0.385994
    34  H   -0.000000  -0.000000  -0.030671  -0.004462  -0.000106   0.388478
    35  H    0.000000   0.000000  -0.027750  -0.002513   0.002950   0.375322
    36  H    0.000009   0.000000   0.388151  -0.027790  -0.026617  -0.039323
              31         32         33         34         35         36
     1  Li   0.000004  -0.000001  -0.000002   0.000001   0.000000   0.000084
     2  N   -0.000000  -0.000000   0.000000  -0.000000   0.000000  -0.000001
     3  C   -0.000000   0.000000  -0.000002  -0.000000   0.000000  -0.000007
     4  Cl  -0.000000   0.000000   0.000000  -0.000000  -0.000000  -0.000000
     5  N   -0.000177  -0.000001  -0.000000  -0.000000  -0.000000  -0.000000
     6  C    0.000503   0.000001  -0.000000   0.000000  -0.000000   0.000005
     7  Cl  -0.000017  -0.000000  -0.000000  -0.000000  -0.000000   0.000000
     8  N    0.000000  -0.000000  -0.000000   0.000000   0.000000  -0.000000
     9  C    0.000000   0.000000   0.000000  -0.000000  -0.000000  -0.000000
    10  Cl  -0.000000  -0.000000  -0.000000  -0.000000  -0.000000  -0.000000
    11  Zn  -0.004672  -0.001141   0.001317   0.000479   0.000231  -0.001463
    12  N   -0.000004  -0.000004  -0.000007  -0.000000  -0.000000   0.000299
    13  C   -0.000001   0.000000  -0.000080   0.000001   0.000000   0.000121
    14  Cl  -0.000001  -0.000001   0.002639  -0.000013   0.000021  -0.000137
    15  N   -0.000032   0.000001  -0.000001   0.000000   0.000000  -0.000001
    16  C   -0.000001   0.000000   0.000000  -0.000000  -0.000000  -0.000000
    17  Cl  -0.000000   0.000000  -0.000000   0.000000   0.000000  -0.000000
    18  N    0.003021   0.000019  -0.000000  -0.000000   0.000000   0.000146
    19  C    0.005715   0.000037   0.000000  -0.000000   0.000000  -0.000416
    20  Cl  -0.001245   0.000010  -0.000001  -0.000002  -0.000001   0.008220
    21  C   -0.000000  -0.000000   0.000000   0.000000  -0.000000   0.000010
    22  H    0.000001  -0.000000   0.000000   0.000000   0.000000   0.000011
    23  C   -0.000011  -0.000014  -0.000001  -0.000003   0.000000  -0.000000
    24  H   -0.000000  -0.000014  -0.000001   0.000016   0.000000   0.000002
    25  C   -0.000366  -0.000025  -0.000000  -0.000000   0.000000   0.000009
    26  H    0.000021  -0.000001   0.000000  -0.000000   0.000000   0.000000
    27  C   -0.019040  -0.021901  -0.027438  -0.030671  -0.027750   0.388151
    28  C    0.385908   0.390379   0.004089  -0.004462  -0.002513  -0.027790
    29  O   -0.024065  -0.026072  -0.002868  -0.000106   0.002950  -0.026617
    30  C    0.001284  -0.002482   0.385994   0.388478   0.375322  -0.039323
    31  H    0.517882  -0.033496  -0.000119   0.000087   0.000130  -0.002741
    32  H   -0.033496   0.546403   0.000058   0.002387   0.000043   0.001588
    33  H   -0.000119   0.000058   0.553652  -0.027060  -0.026785  -0.003389
    34  H    0.000087   0.002387  -0.027060   0.562215  -0.024246   0.004090
    35  H    0.000130   0.000043  -0.026785  -0.024246   0.574082  -0.000117
    36  H   -0.002741   0.001588  -0.003389   0.004090  -0.000117   0.550232
 Mulliken charges:
               1
     1  Li   0.624925
     2  N   -0.501030
     3  C    0.060507
     4  Cl   0.055968
     5  N   -0.363099
     6  C    0.014032
     7  Cl  -0.020301
     8  N   -0.363699
     9  C    0.011544
    10  Cl  -0.023561
    11  Zn   1.042508
    12  N   -0.545679
    13  C    0.054726
    14  Cl   0.052610
    15  N   -0.597509
    16  C    0.042422
    17  Cl  -0.023340
    18  N   -0.599298
    19  C    0.009991
    20  Cl  -0.035972
    21  C    0.238885
    22  H    0.160651
    23  C    0.174917
    24  H    0.099939
    25  C    0.174468
    26  H    0.129472
    27  C    0.128113
    28  C   -0.012421
    29  O   -0.522283
    30  C   -0.329623
    31  H    0.171432
    32  H    0.144226
    33  H    0.140004
    34  H    0.128808
    35  H    0.128632
    36  H    0.149034
 Sum of Mulliken charges =   0.00000
 Mulliken charges with hydrogens summed into heavy atoms:
               1
     1  Li   0.624925
     2  N   -0.501030
     3  C    0.060507
     4  Cl   0.055968
     5  N   -0.363099
     6  C    0.014032
     7  Cl  -0.020301
     8  N   -0.363699
     9  C    0.011544
    10  Cl  -0.023561
    11  Zn   1.042508
    12  N   -0.545679
    13  C    0.054726
    14  Cl   0.052610
    15  N   -0.597509
    16  C    0.042422
    17  Cl  -0.023340
    18  N   -0.599298
    19  C    0.009991
    20  Cl  -0.035972
    21  C    0.399535
    23  C    0.274856
    25  C    0.303940
    27  C    0.277147
    28  C    0.303237
    29  O   -0.522283
    30  C    0.067822
 Electronic spatial extent (au):  <R**2>=          14951.0764
 Charge=              0.0000 electrons
 Dipole moment (field-independent basis, Debye):
    X=              3.2505    Y=            -17.5170    Z=             -1.3878  Tot=             17.8700
 Quadrupole moment (field-independent basis, Debye-Ang):
   XX=           -241.0777   YY=           -151.1026   ZZ=           -161.4908
   XY=             11.2413   XZ=             30.2136   YZ=             57.2179
 Traceless Quadrupole moment (field-independent basis, Debye-Ang):
   XX=            -56.5207   YY=             33.4544   ZZ=             23.0662
   XY=             11.2413   XZ=             30.2136   YZ=             57.2179
 Octapole moment (field-independent basis, Debye-Ang**2):
  XXX=             89.2137  YYY=           -139.2194  ZZZ=            249.1829  XYY=            -27.1513
  XXY=            -13.9881  XXZ=            169.8815  XZZ=            -15.8741  YZZ=           -157.1575
  YYZ=           -126.9557  XYZ=              2.2499
 Hexadecapole moment (field-independent basis, Debye-Ang**3):
 XXXX=          -9257.1071 YYYY=          -5202.9028 ZZZZ=          -3357.4240 XXXY=           -103.1685
 XXXZ=            596.1932 YYYX=             12.7535 YYYZ=           1658.6186 ZZZX=            615.2949
 ZZZY=           1009.8343 XXYY=          -2753.2095 XXZZ=          -2193.5956 YYZZ=           -834.3421
 XXYZ=            118.8055 YYXZ=            435.5585 ZZXY=             -3.7830
 N-N= 3.589733504295D+03 E-N=-1.601611078034D+04  KE= 3.738983463875D+03
  Exact polarizability: 238.637  -2.962 232.039 -15.997  -0.101 222.961
 Approx polarizability: 270.763  -9.079 272.099 -20.123   3.382 276.504
   1 Symmetry operations used in ECPInt.
 ECPInt:  NShTT=   10296 NPrTT=   71845 LenC2=    8388 LenP2D=   30219.
 LDataN:  DoStor=T MaxTD1= 7 Len=  274
 Calling FoFJK, ICntrl=    100127 FMM=F ISym2X=0 I1Cent= 0 IOpClX= 0 NMat=1 NMatS=1 NMatT=0.
 -------------------------------------------------------------------
 Center     Atomic                   Forces (Hartrees/Bohr)
 Number     Number              X              Y              Z
 -------------------------------------------------------------------
      1        3          -0.000000000   -0.000000000   -0.000000000
      2        7          -0.000000000   -0.000000000   -0.000000000
      3        6           0.000000235   -0.000000085   -0.000000668
      4       17          -0.000000128   -0.000000260    0.000000037
      5        7          -0.000000000   -0.000000000   -0.000000000
      6        6          -0.000000273   -0.000000389    0.000000133
      7       17           0.000000116    0.000000026   -0.000000018
      8        7          -0.000000000   -0.000000000   -0.000000000
      9        6          -0.000000279   -0.000000011   -0.000000322
     10       17           0.000000232   -0.000000067    0.000000094
     11       30           0.000000240   -0.000000008   -0.000000040
     12        7          -0.000000015   -0.000000229    0.000000130
     13        6          -0.000000174    0.000000508    0.000000883
     14       17           0.000000049   -0.000000013   -0.000000146
     15        7          -0.000000431    0.000000447    0.000000727
     16        6          -0.000000101    0.000000198    0.000000371
     17       17          -0.000000014   -0.000000160   -0.000000455
     18        7          -0.000000291    0.000000164    0.000000140
     19        6           0.000000216    0.000000634   -0.000000361
     20       17           0.000000035   -0.000000153    0.000000053
     21        6           0.000000218    0.000000232   -0.000000545
     22        1          -0.000000133   -0.000000151    0.000000149
     23        6          -0.000000313   -0.000000103   -0.000001047
     24        1           0.000000333   -0.000000029    0.000000517
     25        6          -0.000000117   -0.000000329    0.000000106
     26        1           0.000000144   -0.000000086   -0.000000029
     27        6          -0.000000092   -0.000000689    0.000000136
     28        6           0.000000138    0.000000940    0.000000205
     29        8          -0.000000466   -0.000000126   -0.000000057
     30        6          -0.000000126    0.000000067   -0.000000341
     31        1           0.000000247    0.000000149   -0.000000241
     32        1           0.000000037   -0.000000067   -0.000000077
     33        1          -0.000000070   -0.000000244    0.000000044
     34        1          -0.000000095    0.000000234    0.000000166
     35        1           0.000000305   -0.000000166    0.000000197
     36        1           0.000000124   -0.000000082   -0.000000065
 -------------------------------------------------------------------
 Cartesian Forces:  Max     0.000001047 RMS     0.000000287

 GradGradGradGradGradGradGradGradGradGradGradGradGradGradGradGradGradGrad
 Berny optimization.
 Search for a local minimum.
 Step number   1 out of a maximum of  118
 All quantities printed in internal units (Hartrees-Bohrs-Radians)
 Second derivative matrix not updated -- analytic derivatives used.
 ITU=  0
     Eigenvalues ---    0.00004   0.00008   0.00011   0.00018   0.00026
     Eigenvalues ---    0.00067   0.00071   0.00155   0.00203   0.00215
     Eigenvalues ---    0.00312   0.00371   0.00460   0.00495   0.00569
     Eigenvalues ---    0.00637   0.01263   0.01330   0.01344   0.01366
     Eigenvalues ---    0.02139   0.02533   0.02643   0.02815   0.02840
     Eigenvalues ---    0.02893   0.02927   0.03915   0.03941   0.04039
     Eigenvalues ---    0.04421   0.05117   0.05915   0.06483   0.06552
     Eigenvalues ---    0.06687   0.06893   0.07050   0.07203   0.07506
     Eigenvalues ---    0.08386   0.09343   0.09647   0.10276   0.10804
     Eigenvalues ---    0.11473   0.12843   0.13397   0.14207   0.15170
     Eigenvalues ---    0.16246   0.16592   0.16674   0.17151   0.18995
     Eigenvalues ---    0.20632   0.20872   0.20910   0.21770   0.23374
     Eigenvalues ---    0.23501   0.24599   0.25857   0.28048   0.28577
     Eigenvalues ---    0.29147   0.29379   0.35050   0.35969   0.37553
     Eigenvalues ---    0.47675   0.48201   0.49021   0.50972   0.52681
     Eigenvalues ---    0.66855   0.67137   0.67569   0.68168   0.85497
     Eigenvalues ---    0.85546   0.85633   0.86615   0.86847   0.93285
     Eigenvalues ---    0.94012   0.95484   0.96801   1.01068   1.11976
     Eigenvalues ---    1.12969   1.13138   1.15513   1.15677   1.18999
     Eigenvalues ---    1.21134
 RFO step:  Lambda= 0.00000000D+00 EMin= 4.30110834D-05
 Linear search not attempted -- first point.
 Variable       Old X    -DE/DX   Delta X   Delta X   Delta X     New X
                                 (Linear)    (Quad)   (Total)
    X1       -1.23999  -0.00000   0.00000   0.00000   0.00000  -1.23999
    Y1       -9.52118  -0.00000   0.00000   0.00000   0.00000  -9.52118
    Z1       -6.53361  -0.00000   0.00000   0.00000   0.00000  -6.53361
    X2       -0.53440  -0.00000   0.00000   0.00000   0.00000  -0.53440
    Y2       -6.94584  -0.00000   0.00000   0.00000   0.00000  -6.94584
    Z2       -4.14735  -0.00000   0.00000   0.00000   0.00000  -4.14735
    X3       -1.68042   0.00000   0.00000   0.00002   0.00002  -1.68040
    Y3       -7.70097  -0.00000   0.00000  -0.00001  -0.00001  -7.70097
    Z3       -1.96400  -0.00000   0.00000   0.00001   0.00001  -1.96399
    X4       -3.09090  -0.00000   0.00000   0.00003   0.00003  -3.09086
    Y4      -10.65707  -0.00000   0.00000  -0.00002  -0.00002 -10.65708
    Z4       -1.88648   0.00000   0.00000   0.00001   0.00001  -1.88647
    X5        4.39971  -0.00000   0.00000   0.00000   0.00000   4.39971
    Y5        4.91149  -0.00000   0.00000   0.00000   0.00000   4.91149
    Z5       -4.57207  -0.00000   0.00000   0.00000   0.00000  -4.57207
    X6        6.15874  -0.00000   0.00000  -0.00000  -0.00000   6.15874
    Y6        3.07169  -0.00000   0.00000  -0.00000  -0.00000   3.07169
    Z6       -4.33291   0.00000   0.00000  -0.00000  -0.00000  -4.33292
    X7        9.16335   0.00000   0.00000  -0.00000  -0.00000   9.16335
    Y7        3.32607   0.00000   0.00000  -0.00000  -0.00000   3.32607
    Z7       -5.57760  -0.00000   0.00000  -0.00000  -0.00000  -5.57761
    X8       -6.28803  -0.00000   0.00000   0.00000   0.00000  -6.28803
    Y8        3.92134  -0.00000   0.00000   0.00000   0.00000   3.92134
    Z8        2.01394  -0.00000   0.00000   0.00000   0.00000   2.01394
    X9       -6.92945  -0.00000   0.00000   0.00000   0.00000  -6.92945
    Y9        3.32556  -0.00000   0.00000   0.00001   0.00001   3.32557
    Z9       -0.38918  -0.00000   0.00000  -0.00000  -0.00000  -0.38918
   X10       -9.75201   0.00000   0.00000   0.00001   0.00001  -9.75200
   Y10        4.24602  -0.00000   0.00000   0.00002   0.00002   4.24604
   Z10       -1.74087   0.00000   0.00000  -0.00001  -0.00001  -1.74088
   X11        0.13379   0.00000   0.00000   0.00000   0.00000   0.13379
   Y11       -0.10113  -0.00000   0.00000  -0.00000  -0.00000  -0.10113
   Z11       -0.24269  -0.00000   0.00000   0.00000   0.00000  -0.24269
   X12       -0.19325  -0.00000   0.00000   0.00000   0.00000  -0.19325
   Y12       -3.88015  -0.00000   0.00000  -0.00000  -0.00000  -3.88015
   Z12       -1.26375   0.00000   0.00000   0.00000   0.00000  -1.26375
   X13       -1.48822  -0.00000   0.00000   0.00002   0.00002  -1.48820
   Y13       -5.84102   0.00000   0.00000  -0.00001  -0.00001  -5.84103
   Z13       -0.19094   0.00000   0.00000   0.00001   0.00001  -0.19093
   X14       -2.57524   0.00000   0.00000   0.00004   0.00004  -2.57520
   Y14       -5.77849  -0.00000   0.00000  -0.00002  -0.00002  -5.77851
   Z14        2.85396  -0.00000   0.00000   0.00001   0.00001   2.85398
   X15       -3.15875  -0.00000   0.00000   0.00000   0.00000  -3.15875
   Y15        1.63275   0.00000   0.00000   0.00000   0.00000   1.63275
   Z15        0.25164   0.00000   0.00000   0.00000   0.00000   0.25164
   X16       -5.04404  -0.00000   0.00000   0.00001   0.00001  -5.04403
   Y16        1.93351   0.00000   0.00000   0.00001   0.00001   1.93352
   Z16       -1.48732   0.00000   0.00000  -0.00000  -0.00000  -1.48732
   X17       -4.82982  -0.00000   0.00000   0.00001   0.00001  -4.82981
   Y17        0.67108  -0.00000   0.00000   0.00002   0.00002   0.67110
   Z17       -4.48960  -0.00000   0.00000  -0.00001  -0.00001  -4.48961
   X18        2.73746  -0.00000   0.00000  -0.00000  -0.00000   2.73746
   Y18        1.64939   0.00000   0.00000  -0.00000  -0.00000   1.64938
   Z18       -2.37666   0.00000   0.00000  -0.00000  -0.00000  -2.37666
   X19        5.17949   0.00000   0.00000  -0.00000  -0.00000   5.17949
   Y19        1.07692   0.00000   0.00000  -0.00000  -0.00000   1.07692
   Z19       -3.00163  -0.00000   0.00000  -0.00001  -0.00001  -3.00164
   X20        6.57889   0.00000   0.00000  -0.00000  -0.00000   6.57889
   Y20       -1.75717  -0.00000   0.00000  -0.00000  -0.00000  -1.75718
   Z20       -2.15636   0.00000   0.00000  -0.00001  -0.00001  -2.15637
   X21        0.32723   0.00000   0.00000  -0.00001  -0.00001   0.32723
   Y21       -4.63180   0.00000   0.00000   0.00000   0.00000  -4.63179
   Z21       -3.61856  -0.00000   0.00000  -0.00000  -0.00000  -3.61857
   X22        1.34468  -0.00000   0.00000  -0.00002  -0.00002   1.34466
   Y22       -3.46276  -0.00000   0.00000   0.00001   0.00001  -3.46275
   Z22       -4.94861   0.00000   0.00000  -0.00001  -0.00001  -4.94862
   X23       -4.04231  -0.00000   0.00000  -0.00000  -0.00000  -4.04231
   Y23        2.87928  -0.00000   0.00000  -0.00000  -0.00000   2.87927
   Z23        2.31485  -0.00000   0.00000   0.00000   0.00000   2.31485
   X24       -2.96585   0.00000   0.00000  -0.00001  -0.00001  -2.96585
   Y24        2.98118  -0.00000   0.00000  -0.00001  -0.00001   2.98116
   Z24        4.05075   0.00000   0.00000   0.00001   0.00001   4.05076
   X25        2.40375  -0.00000   0.00000  -0.00000  -0.00000   2.40375
   Y25        3.99066  -0.00000   0.00000  -0.00000  -0.00000   3.99066
   Z25       -3.38776   0.00000   0.00000  -0.00000  -0.00000  -3.38776
   X26        0.62374   0.00000   0.00000   0.00000   0.00000   0.62374
   Y26        4.98453  -0.00000   0.00000  -0.00000  -0.00000   4.98453
   Z26       -3.22030  -0.00000   0.00000   0.00000   0.00000  -3.22030
   X27        3.85871  -0.00000   0.00000   0.00002   0.00002   3.85873
   Y27       -1.46173  -0.00000   0.00000   0.00003   0.00003  -1.46170
   Z27        4.41292   0.00000   0.00000  -0.00001  -0.00001   4.41292
   X28        4.04535   0.00000   0.00000   0.00000   0.00000   4.04535
   Y28        1.27277   0.00000   0.00000   0.00003   0.00003   1.27280
   Z28        4.04357   0.00000   0.00000  -0.00001  -0.00001   4.04356
   X29        1.73062  -0.00000   0.00000   0.00001   0.00001   1.73063
   Y29       -0.04557  -0.00000   0.00000   0.00001   0.00001  -0.04556
   Z29        3.41869  -0.00000   0.00000  -0.00000  -0.00000   3.41869
   X30        3.43359  -0.00000   0.00000   0.00004   0.00004   3.43362
   Y30       -2.63136   0.00000   0.00000   0.00003   0.00003  -2.63133
   Z30        6.95536  -0.00000   0.00000  -0.00000  -0.00000   6.95536
   X31        5.05776   0.00000   0.00000  -0.00001  -0.00001   5.05775
   Y31        2.02226   0.00000   0.00000   0.00003   0.00003   2.02229
   Z31        2.42285  -0.00000   0.00000  -0.00002  -0.00002   2.42283
   X32        3.85075   0.00000   0.00000  -0.00000  -0.00000   3.85075
   Y32        2.52281  -0.00000   0.00000   0.00003   0.00003   2.52284
   Z32        5.66017  -0.00000   0.00000  -0.00002  -0.00002   5.66015
   X33        2.25339  -0.00000   0.00000   0.00005   0.00005   2.25343
   Y33       -4.31715  -0.00000   0.00000   0.00002   0.00002  -4.31713
   Z33        6.78524   0.00000   0.00000   0.00001   0.00001   6.78525
   X34        2.50240  -0.00000   0.00000   0.00003   0.00003   2.50243
   Y34       -1.30038   0.00000   0.00000   0.00003   0.00003  -1.30036
   Z34        8.22790   0.00000   0.00000  -0.00000  -0.00000   8.22790
   X35        5.24344   0.00000   0.00000   0.00004   0.00004   5.24348
   Y35       -3.18850  -0.00000   0.00000   0.00004   0.00004  -3.18846
   Z35        7.78269   0.00000   0.00000  -0.00001  -0.00001   7.78269
   X36        4.75026   0.00000   0.00000   0.00002   0.00002   4.75028
   Y36       -2.64270  -0.00000   0.00000   0.00003   0.00003  -2.64267
   Z36        2.98611  -0.00000   0.00000  -0.00001  -0.00001   2.98611
         Item               Value     Threshold  Converged?
 Maximum Force            0.000001     0.000015     YES
 RMS     Force            0.000000     0.000010     YES
 Maximum Displacement     0.000046     0.000060     YES
 RMS     Displacement     0.000015     0.000040     YES
 Predicted change in Energy=-7.106505D-12
 Optimization completed.
    -- Stationary point found.
 GradGradGradGradGradGradGradGradGradGradGradGradGradGradGradGradGradGrad

                          Input orientation:                          
 ---------------------------------------------------------------------
 Center     Atomic      Atomic             Coordinates (Angstroms)
 Number     Number       Type             X           Y           Z
 ---------------------------------------------------------------------
      1          3           0       -0.656174   -5.038394   -3.457440
      2          7           0       -0.282792   -3.675582   -2.194684
      3          6           0       -0.889238   -4.075176   -1.039304
      4         17           0       -1.635633   -5.639476   -0.998283
      5          7           0        2.328228    2.599049   -2.419433
      6          6           0        3.259066    1.625470   -2.292878
      7         17           0        4.849035    1.760081   -2.951541
      8          7           0       -3.327483    2.075083    1.065729
      9          6           0       -3.666908    1.759812   -0.205944
     10         17           0       -5.160542    2.246895   -0.921231
     11         30           0        0.070800   -0.053516   -0.128424
     12          7           0       -0.102263   -2.053288   -0.668749
     13          6           0       -0.787533   -3.090935   -0.101042
     14         17           0       -1.362759   -3.057846    1.510252
     15          7           0       -1.671536    0.864014    0.133164
     16          6           0       -2.669191    1.023170   -0.787056
     17         17           0       -2.555832    0.355122   -2.375792
     18          7           0        1.448600    0.872817   -1.257675
     19          6           0        2.740869    0.569882   -1.588394
     20         17           0        3.481400   -0.929856   -1.141096
     21          6           0        0.173165   -2.451041   -1.914860
     22          1           0        0.711574   -1.832415   -2.618693
     23          6           0       -2.139099    1.523649    1.224964
     24          1           0       -1.569459    1.577572    2.143566
     25          6           0        1.272009    2.111765   -1.792723
     26          1           0        0.330071    2.637701   -1.704111
     27          6           0        2.041941   -0.773512    2.335218
     28          6           0        2.140709    0.673520    2.139765
     29          8           0        0.915807   -0.024114    1.809092
     30          6           0        1.816975   -1.392456    3.680619
     31          1           0        2.676453    1.070133    1.282118
     32          1           0        2.037728    1.335013    2.995231
     33          1           0        1.192440   -2.284540    3.590595
     34          1           0        1.324213   -0.688134    4.354019
     35          1           0        2.774708   -1.687281    4.118424
     36          1           0        2.513729   -1.398458    1.580184
[...]
 0.04514009,0.11268855,-0.01921042,-0.01895541,0.02122758,0.00210989,0.
 00260957,0.00103172,0.12170845,0.,0.,0.,0.,0.,0.,0.00000539,0.00001799
 ,-0.00000836,0.00000474,0.00000925,-0.00000712,0.,0.,0.,0.00005064,0.0
 0021573,-0.00016641,-0.00006697,-0.00003345,0.00004395,0.,0.,0.,-0.000
 00432,-0.00000002,-0.00000118,-0.00001646,0.00000811,-0.00000734,-0.00
 067070,0.00007388,0.00062478,0.00007385,0.00000661,-0.00006635,-0.0000
 5287,0.00001159,0.00015394,0.00001606,-0.00001032,-0.00007681,-0.00006
 976,0.00001462,-0.00008326,-0.00000748,0.00002117,0.00008370,0.0000089
 1,-0.00000817,-0.00003000,0.00002245,-0.00026600,0.00020269,-0.0000760
 9,0.00086236,-0.00052773,0.00023831,-0.00044103,0.00033647,-0.00001779
 ,-0.00005425,-0.00000515,-0.00002198,0.00000083,-0.00002099,0.00003961
 ,-0.00003412,-0.00006529,0.00000061,-0.00000251,-0.00003486,0.00007753
 ,-0.00009551,0.00021804,0.00004282,-0.00001659,0.00005875,-0.01491729,
 -0.00523110,0.02025350,-0.05077475,-0.08931323,0.07593771,-0.00486542,
 -0.00608609,0.00218459,-0.00213990,-0.00280373,-0.00183985,0.06190347,
 0.09311173,0.,0.,0.,0.,0.,0.,0.00000729,0.00000874,-0.00001273,0.00000
 782,0.00001662,-0.00000328,0.,0.,0.,0.00035778,0.00053170,-0.00029418,
 -0.00024871,-0.00003954,0.00009489,0.,0.,0.,-0.00000155,0.00000911,-0.
 00002595,-0.00000242,-0.00000623,-0.00000013,-0.00040303,-0.00023731,0
 .00107027,0.00004509,0.00007276,-0.00007442,-0.00002330,0.00002331,0.0
 0012437,0.00001090,-0.00001941,-0.00005284,0.00004623,-0.00000807,-0.0
 0014100,-0.00005024,0.00006404,0.00002524,0.00002221,-0.00000907,-0.00
 003166,-0.00062980,0.00026421,-0.00016909,0.00086691,-0.00055987,-0.00
 012267,-0.00003834,-0.00018820,-0.00038822,-0.00003675,-0.00004821,0.0
 0000148,-0.00001429,-0.00001795,-0.00001593,0.00002540,0.00000318,0.00
 009238,-0.00000107,-0.00001628,-0.00004613,-0.00023798,-0.00004190,-0.
 00002032,0.00004329,-0.00000256,0.00007160,0.00069588,-0.00202646,-0.0
 0481160,0.12121213,0.08389327,-0.25022486,-0.00893312,-0.00686918,0.01
 469529,0.00069308,0.00077008,0.00038859,-0.12226996,-0.08451141,0.2502
 5864,0.,0.,0.,0.,0.,0.,0.00001841,0.00000031,-0.00004528,-0.00001184,-
 0.00003726,-0.00000829,0.,0.,0.,0.00011049,0.00014152,-0.00011707,-0.0
 0005184,-0.00001110,0.00002383,0.,0.,0.,-0.00005575,0.00003285,0.00004
 879,0.00000103,0.00000349,0.00001064,0.00043689,-0.00101451,0.00170934
 ,-0.00009959,-0.00017417,-0.00043623,0.00009601,0.00016223,-0.00004771
 ,-0.00003906,-0.00004365,0.00000852,-0.00015905,0.00015433,-0.00011854
 ,0.00010537,0.00000122,0.00012609,-0.00000908,0.00001955,0.00002316,0.
 00005708,0.00018285,0.00012201,0.00001610,0.00014666,-0.00000447,0.000
 06511,-0.00010044,0.00006806,-0.00010365,-0.00002426,0.00018959,-0.000
 01240,-0.00000952,-0.00001888,-0.00000175,-0.00007784,-0.00029829,-0.0
 0002693,-0.00003322,0.00002000,0.00002025,-0.00004162,0.00001451,-0.00
 000448,-0.00001100,-0.00000060,-0.00689143,0.00403506,0.01089797,-0.04
 891877,0.02695965,0.03899977,-0.00248287,-0.02772143,-0.02907550,0.000
 34063,-0.00163429,-0.00028966,0.00272781,0.00999214,0.00894943,0.05305
 081,0.,0.,0.,0.,0.,0.,0.00001758,0.00002121,-0.00001499,-0.00000931,-0
 .00002831,-0.00000566,0.,0.,0.,0.00003058,0.00009541,-0.00005134,-0.00
 001481,-0.00000518,0.00000933,0.,0.,0.,0.00001105,0.00000014,0.0000094
 5,-0.00001639,0.00000463,-0.00000648,0.00020339,-0.00037471,0.00072757
 ,-0.00009200,-0.00002108,-0.00017134,0.00008282,0.00010086,-0.00002150
 ,-0.00002066,-0.00001950,0.00000391,-0.00002622,0.00002170,-0.00003440
 ,0.00000939,0.00001524,0.00003573,0.00000577,-0.00000148,-0.00001632,0
 .00001334,0.00012659,0.00013952,0.00017170,-0.00004020,0.00003542,0.00
 004501,0.00000245,-0.00001365,-0.00004856,0.00002612,0.00012208,-0.000
 00934,0.00000010,-0.00000486,0.00001796,-0.00001589,-0.00000854,-0.000
 00557,0.00001053,-0.00004241,-0.00001815,0.00002381,-0.00002286,0.0000
 1176,-0.00000062,0.00001523,0.00137905,-0.01343936,-0.02316643,0.01645
 032,-0.15446459,-0.13631203,-0.00388750,-0.00629416,-0.00134635,0.0016
 9086,0.00170845,-0.00081302,-0.00003705,0.00973969,0.00951679,-0.01242
 890,0.16462157,0.,0.,0.,0.,0.,0.,0.00000682,0.00000512,-0.00000380,-0.
 00000964,-0.00002410,-0.00000301,0.,0.,0.,-0.00011448,-0.00009156,0.00
 007263,0.00007097,0.00001967,-0.00003166,0.,0.,0.,-0.00003076,0.000018
 20,0.00004201,0.00000445,0.00000042,0.00000997,0.00078028,-0.00023892,
 0.00051791,-0.00006827,-0.00010335,-0.00009220,0.00002716,0.00002558,-
 0.00005988,-0.00000845,-0.00000785,0.00002339,-0.00011059,0.00009453,-
 0.00000859,0.00008931,-0.00002546,0.00003668,-0.00001135,0.00001960,0.
 00003642,0.00006816,0.00001122,-0.00036063,-0.00032812,-0.00005848,0.0
 0004253,-0.00004910,0.00007424,-0.00004872,-0.00001138,0.00001992,0.00
 004249,0.00000519,0.00001156,0.00001018,-0.00002394,-0.00001236,-0.000
 17672,-0.00004892,-0.00005781,0.00004630,0.00005458,-0.00014716,0.0000
 7617,-0.00003105,0.00000152,-0.00004489,-0.00285383,0.00726090,0.01020
 667,0.03453325,-0.13688348,-0.24078278,-0.00360243,-0.00697397,-0.0036
 4095,-0.00078194,-0.00014507,0.00063981,0.00168829,-0.01433829,-0.0114
 0484,-0.03046503,0.14994789,0.24458515,0.,0.,0.,0.,0.,0.,-0.00003449,-
 0.00009133,0.00001591,0.00001562,0.00003585,0.00000656,0.,0.,0.,0.0000
 0810,-0.00000989,0.00000205,-0.00001677,-0.00000095,0.00000757,0.,0.,0
 .,-0.00001867,0.00000854,-0.00001095,0.00002543,-0.00000792,0.00001107
 ,-0.00000941,-0.00005310,-0.00030922,-0.00004340,0.00005574,0.00003808
 ,0.00022355,0.00004597,-0.00017860,-0.00032861,-0.00008000,0.00000475,
 0.00005547,-0.00003587,0.00005101,-0.00000620,-0.00001845,-0.00004855,
 0.00000079,0.00000832,0.00002089,-0.00003602,-0.00001055,0.00006443,0.
 00008064,-0.00005888,-0.00000118,-0.00002098,0.00003246,-0.00000971,-0
 .00000155,0.00001477,0.00004754,-0.00000071,0.00000129,0.00000516,-0.0
 0004142,0.00002245,0.00001481,0.00000219,0.00002319,0.00001287,-0.0000
 0509,0.00005524,-0.00002241,-0.00000080,0.00000426,-0.00000262,-0.0031
 6559,-0.00284589,-0.00097786,0.00022329,0.00178220,-0.00007870,0.00171
 451,-0.00038734,0.00120618,-0.13916138,-0.12890709,-0.01288226,0.00006
 548,-0.00006372,-0.00017686,-0.00000516,-0.00021099,0.00001799,0.14533
 220,0.,0.,0.,0.,0.,0.,0.00005643,0.00009960,-0.00002859,-0.00000950,-0
 .00002499,-0.00001440,0.,0.,0.,0.00001916,0.00001516,-0.00002571,-0.00
 000542,-0.00000073,0.00000593,0.,0.,0.,0.00001330,-0.00001411,0.000007
 44,-0.00000940,0.00000287,-0.00000436,-0.00029476,-0.00033005,0.000004
 30,0.00004819,0.00005955,-0.00008698,-0.00022779,-0.00007483,0.0003949
 7,-0.00005273,-0.00006819,-0.00033659,0.00003377,0.00006327,-0.0000089
 8,0.00000224,0.00000651,0.00000130,0.00000200,0.00000313,-0.00000633,0
 .00005009,0.00004965,0.00009008,0.00001804,0.00001782,0.00000129,0.000
 00994,-0.00001161,0.00002719,-0.00000959,-0.00002998,-0.00003885,-0.00
 000764,-0.00001209,-0.00001583,0.00000984,0.00001143,-0.00001774,-0.00
 002407,-0.00003867,0.00000602,-0.00000781,0.00001459,0.00000547,-0.000
 00399,-0.00000710,-0.00000188,-0.00665859,-0.01236946,-0.00026101,-0.0
 0207367,0.00045117,0.00239377,0.00109967,0.00102341,-0.00054664,-0.128
 09871,-0.23208098,-0.02178622,0.00071781,-0.00039699,0.00024248,-0.000
 13363,0.00055469,-0.00012676,0.14105343,0.24823025,0.,0.,0.,0.,0.,0.,-
 0.00004060,-0.00011747,-0.00002971,0.00001160,0.00003722,0.00001993,0.
 ,0.,0.,-0.00001566,-0.00001251,0.00002239,0.00001513,0.00000001,-0.000
 00792,0.,0.,0.,-0.00000828,0.00000263,-0.00000637,0.00000050,0.0000006
 5,-0.00000218,0.00022795,0.00043292,0.00020262,0.00001302,-0.00007111,
 0.00007721,0.00007557,-0.00002320,-0.00043127,0.00009798,-0.00000512,0
 .00026085,-0.00002121,-0.00006715,-0.00002792,-0.00001992,0.00001303,0
 .00002780,0.00000815,-0.00001308,-0.00001835,-0.00003077,-0.00007490,-
 0.00013247,-0.00008575,0.00005553,-0.00001259,0.00000208,-0.00003591,0
 .00000508,0.00001311,0.00003154,0.00003151,0.00000505,0.00001686,0.000
 01439,0.00001523,-0.00000026,0.00003379,0.00000578,0.00000302,-0.00001
 751,0.00000421,-0.00004870,0.00001375,0.00000276,0.00000193,0.00000268
 ,0.01937715,0.03079090,0.00308377,0.00285256,0.00086357,-0.00543558,-0
 .00160867,-0.00295324,0.00235301,-0.01468925,-0.02313014,-0.05240643,-
 0.00089841,0.00127798,-0.00014406,0.00003953,0.00003660,0.00002257,0.0
 1423415,0.02049095,0.05462319,0.,0.,0.,0.,0.,0.,-0.00001318,-0.0000136
 9,0.00001465,0.00000455,0.00001123,0.00000097,0.,0.,0.,0.00002854,0.00
 000561,-0.00000640,-0.00001635,-0.00000469,0.00000633,0.,0.,0.,-0.0000
 2372,0.00001742,-0.00000287,0.00002288,-0.00000748,0.00001212,0.000010
 50,-0.00001081,-0.00017313,0.00000500,0.00002014,0.00002576,0.00001276
 ,0.00001287,0.00001416,-0.00003896,-0.00001323,-0.00001742,0.00001695,
 -0.00001409,0.00003861,0.00001650,-0.00001490,-0.00002107,-0.00000512,
 0.00000874,0.00002420,-0.00002887,-0.00003286,0.00001245,-0.00002390,0
 .00005235,-0.00001178,-0.00000050,-0.00003598,0.00004054,0.00000454,-0
 .00001172,-0.00002571,0.00000036,-0.00000114,-0.00000215,-0.00004739,-
 0.00000723,-0.00003592,0.00001366,0.00003501,-0.00000286,0.00000299,0.
 00000438,-0.00000750,0.00000335,0.00000325,0.00000470,-0.00445584,0.00
 408206,0.00205536,0.00048572,0.00096966,0.00026998,0.00064826,-0.00125
 036,-0.00062535,-0.10485139,0.08018236,0.07743508,-0.00011350,-0.00014
 564,-0.00020707,0.00003051,-0.00058815,0.00020617,0.01006576,-0.012060
 94,-0.01287196,0.10786680,0.,0.,0.,0.,0.,0.,-0.00000456,0.00001497,0.0
 0002232,-0.00000044,-0.00000219,-0.00000616,0.,0.,0.,0.00000052,-0.000
 00475,0.00000251,0.00000150,0.00000021,-0.00000113,0.,0.,0.,-0.0000004
 1,0.00000668,0.00000265,-0.00000453,0.00000177,0.00000041,0.00005638,-
 0.00000582,0.00005492,-0.00000687,0.00000497,-0.00000741,0.00001838,0.
 00002914,0.00004922,-0.00007385,-0.00003130,-0.00007191,-0.00004181,0.
 00001163,-0.00000051,0.00002049,-0.00000724,0.00000624,-0.00000542,0.0
 0000647,0.00000948,0.00001516,-0.00000456,-0.00003926,-0.00003427,0.00
 004908,-0.00001978,-0.00003525,-0.00001536,0.00011388,-0.00000176,-0.0
 0001297,-0.00000507,-0.00000060,-0.00000175,-0.00000052,0.00000622,-0.
 00002751,-0.00002784,0.00001787,0.00002736,-0.00000102,0.00000920,-0.0
 0001782,0.00000967,0.00000235,0.00000101,0.00000395,-0.00811700,0.0099
 2632,0.01089537,-0.00075033,0.00161024,0.00088313,-0.00031237,0.000781
 19,-0.00152429,0.08215161,-0.16868874,-0.11157789,-0.00000433,-0.00000
 959,-0.00005405,-0.00016146,-0.00005677,-0.00026966,0.01336991,-0.0151
 0687,-0.01495986,-0.08790396,0.17763561,0.,0.,0.,0.,0.,0.,-0.00000346,
 -0.00001168,0.00000962,-0.00000329,-0.00000779,0.00000268,0.,0.,0.,-0.
 00004899,-0.00003242,0.00002644,-0.00000055,0.00000504,-0.00000368,0.,
 0.,0.,-0.00002758,0.00002355,0.00000979,0.00002671,-0.00000714,0.00001
 584,0.00018039,-0.00017655,-0.00027022,-0.00009804,0.00002120,-0.00000
 950,0.00008410,0.00005188,-0.00010071,-0.00004610,-0.00001628,0.000044
 67,-0.00001360,0.00000462,0.00006647,0.00004037,-0.00003015,-0.0000233
 4,-0.00000859,0.00001840,0.00004009,-0.00004984,0.00001697,0.00010839,
 0.00016907,-0.00022067,0.00004006,0.00001431,0.00013779,-0.00023085,-0
 .00000152,0.00003330,0.00004520,0.00000846,-0.00000461,0.00000731,-0.0
 0007492,-0.00001153,-0.00010163,-0.00000504,0.00003854,0.00000423,0.00
 000364,0.00009156,-0.00004169,-0.00000320,0.00000788,-0.00000795,0.015
 54930,-0.02102356,-0.02180428,0.00097722,-0.00142907,0.00112537,-0.001
 43930,-0.00077684,0.00303969,0.07531477,-0.10829807,-0.15133872,0.0001
 4030,0.00008169,0.00030482,-0.00028949,0.00094244,0.00011045,0.0003573
 7,-0.00084891,-0.00148726,-0.08522031,0.11779768,0.16410611,0.,0.,0.,0
 .,0.,0.,0.00003244,0.00007110,-0.00000386,-0.00000985,-0.00002656,-0.0
 0001013,0.,0.,0.,-0.00001972,-0.00000516,0.00000847,0.00001358,0.00000
 169,-0.00000604,0.,0.,0.,0.00002731,-0.00001724,0.00000574,-0.00001665
 ,0.00000474,-0.00000915,-0.00007850,-0.00014428,-0.00003930,0.00001291
 ,0.00000724,-0.00004828,-0.00012556,-0.00003305,0.00022020,0.00001958,
 -0.00000319,-0.00015437,0.00002747,0.00002590,0.00001032,-0.00000658,0
 .00000410,-0.00000440,-0.00000216,-0.00000324,-0.00001304,0.00001334,0
 .00001660,0.00000549,-0.00001329,-0.00000094,0.00000701,0.00001066,0.0
 0000349,-0.00001771,0.00000062,-0.00000747,-0.00002139,-0.00000211,-0.
 00000561,-0.00000611,0.00002555,0.00000949,0.00003268,-0.00000562,-0.0
 0002710,0.00000396,0.00000113,-0.00001274,0.00000839,0.00000093,-0.000
 00084,0.00000126,0.00515799,-0.00125395,0.00190390,0.00021549,0.000737
 93,-0.00086221,0.00224109,-0.00199705,0.00230995,-0.25985831,0.0648427
 0,-0.09505258,-0.00007219,0.00011075,-0.00000004,-0.00008421,-0.000064
 02,-0.00012048,-0.01479800,0.00601864,-0.00634073,-0.01069451,0.001823
 41,-0.00551244,0.27785530,0.,0.,0.,0.,0.,0.,0.00001984,0.00004646,0.00
 000047,-0.00000249,-0.00000528,-0.00000424,0.,0.,0.,0.00003276,-0.0000
 3288,0.00000004,-0.00003167,-0.00000503,0.00000893,0.,0.,0.,-0.0000070
 5,0.00000095,-0.00000420,0.00002062,-0.00000761,0.00000905,-0.00029693
 ,-0.00020805,-0.00046206,0.00003129,0.00006358,0.00000990,-0.00013665,
 -0.00004680,0.00021869,-0.00001635,-0.00002791,-0.00016941,0.00008616,
 0.00000353,0.00006654,-0.00000215,-0.00001437,-0.00005220,0.00000271,0
 .00000824,0.00001831,-0.00004799,-0.00005755,0.00017279,0.00007889,-0.
 00002733,-0.00001063,-0.00001239,0.00001413,-0.00000355,0.00000937,-0.
 00002230,-0.00007125,-0.00000116,-0.00000392,-0.00000665,-0.00005149,0
 .00002419,-0.00000755,-0.00001289,0.00001280,0.00000813,-0.00000436,0.
 00009336,-0.00002308,0.00000065,0.00000173,-0.00000164,0.01298713,-0.0
 0448162,0.00315793,0.00114758,0.00032663,-0.00089670,-0.00052742,-0.00
 161417,0.00449568,0.06396067,-0.06698410,0.02922335,-0.00007060,0.0001
 1644,-0.00000992,0.00002685,-0.00018292,0.00009197,-0.02367428,0.00940
 530,-0.01166010,0.01729565,-0.00522546,0.01018038,-0.07052834,0.068536
 90,0.,0.,0.,0.,0.,0.,0.00000442,0.00000151,-0.00001247,-0.00001014,-0.
 00002605,-0.00000225,0.,0.,0.,-0.00002564,0.00005823,-0.00001244,0.000
 04554,0.00000337,-0.00001349,0.,0.,0.,-0.00000063,0.00001067,0.0000201
 4,-0.00003270,0.00001304,-0.00001138,0.00043344,0.00025903,0.00098218,
 -0.00001501,-0.00010482,-0.00009517,0.00005599,0.00007722,-0.00003322,
 -0.00003560,-0.00003705,0.00000644,-0.00018716,0.00002840,-0.00013312,
 0.00003476,0.00002337,0.00011973,-0.00000494,-0.00000862,-0.00002231,0
 .00009890,0.00006256,-0.00026255,-0.00020782,0.00015970,0.00000409,0.0
 0004648,-0.00008784,0.00004000,-0.00002514,0.00002728,0.00008144,-0.00
 000562,0.00000655,-0.00000105,0.00006871,-0.00007368,-0.00007582,0.000
 02047,0.00000330,-0.00002837,0.00001556,-0.00017860,0.00005490,0.00000
 295,-0.00000388,0.00000591,-0.02778127,0.00567323,-0.00798713,-0.00082
 646,-0.00028094,0.00109845,-0.00021620,0.00399757,-0.00692616,-0.09391
 680,0.02915309,-0.09336076,0.00013838,0.00003819,0.00001602,0.00021333
 ,0.00031406,0.00002284,-0.00161515,0.00022659,-0.00159456,0.01849213,-
 0.00423810,0.01004132,0.10433975,-0.03421260,0.09756995,0.,0.,0.,0.,0.
 ,0.,-0.00005288,-0.00006385,0.00002352,0.00001996,0.00006652,0.0000171
 6,0.,0.,0.,-0.00005649,-0.00007598,0.00002951,0.00001162,-0.00000059,-
 0.00000788,0.,0.,0.,-0.00000223,-0.00001462,-0.00001136,-0.00003112,0.
 00001211,-0.00001827,-0.00019349,0.00113123,0.00096913,0.00047060,-0.0
 0006730,0.00041595,-0.00019404,-0.00024183,-0.00001484,0.00004324,0.00
 000646,0.00003314,-0.00000276,-0.00008513,-0.00013546,-0.00002790,0.00
 003531,0.00008578,0.00001831,-0.00002829,-0.00005101,0.00002390,-0.000
 12152,-0.00010245,0.00018173,-0.00009925,-0.00012840,-0.00044148,0.000
 00489,0.00065012,0.00008013,-0.00010747,-0.00028577,0.00001676,0.00002
 000,0.00001550,0.00013923,-0.00001370,0.00013071,0.00004075,-0.0000752
 5,-0.00009339,-0.00004856,0.00013334,-0.00004355,-0.00000464,0.0000017
 7,-0.00000663,-0.09490778,0.06312867,0.08588203,0.00468914,-0.00819642
 ,-0.01587272,-0.01778926,0.02608466,0.01500973,0.00226506,0.00085883,0
 .00252180,-0.00043540,0.00115901,0.00016836,0.00182674,-0.00265329,0.0
 0108461,-0.00006566,0.00044368,-0.00030955,0.00105106,-0.00002603,0.00
 003724,0.00009655,-0.00029062,0.00086180,0.10342406,0.,0.,0.,0.,0.,0.,
 -0.00000789,-0.00004036,-0.00000031,-0.00000213,-0.00000126,0.00000900
 ,0.,0.,0.,-0.00010636,-0.00010040,0.00006332,0.00001429,0.00001900,-0.
 00001814,0.,0.,0.,-0.00002567,0.00000683,0.00000891,0.00003780,-0.0000
 0923,0.00001895,0.00050601,-0.00021020,-0.00098131,-0.00001289,0.00003
 277,0.00016782,-0.00003445,-0.00004676,-0.00006146,0.00001119,0.000010
 58,0.00003643,0.00005328,-0.00001186,0.00015157,0.00002743,-0.00005542
 ,-0.00007280,-0.00000215,0.00002166,0.00004701,-0.00011782,0.00008985,
 0.00013633,0.00023273,-0.00071132,0.00032686,0.00024553,0.00026029,-0.
 00110714,0.00003265,0.00007567,-0.00005275,0.00002748,0.00000405,0.000
 01919,-0.00008584,0.00003217,-0.00008392,-0.00003382,-0.00000047,0.000
 05592,-0.00000129,0.00020452,-0.00009110,-0.00002117,0.00001885,-0.000
 03639,0.06924135,-0.14376985,-0.11175252,0.01361515,-0.01481450,-0.017
 87891,0.00407412,-0.00761887,0.00087646,-0.00731635,0.01074134,0.01054
 532,-0.00086896,0.00101422,-0.00047586,0.00195865,-0.00200927,0.001720
 33,-0.00003573,0.00054141,-0.00084537,-0.00055262,-0.00089466,0.003416
 55,0.00043049,0.00030339,-0.00086072,-0.08116060,0.15674087,0.,0.,0.,0
 .,0.,0.,-0.00000247,0.00002840,0.00000794,0.00000872,0.00002224,-0.000
 00759,0.,0.,0.,0.00022049,0.00002357,-0.00008144,-0.00005109,-0.000017
 67,0.00002024,0.,0.,0.,-0.00000147,-0.00000581,-0.00000992,-0.00002565
 ,0.00000882,-0.00001289,-0.00043851,0.00016530,0.00110384,0.00023556,0
 .00004478,-0.00000565,0.00000934,0.00005527,0.00021816,-0.00001888,-0.
 00002686,-0.00010390,-0.00000808,0.00000947,-0.00012710,-0.00002409,0.
 00003889,0.00007035,0.00001934,-0.00001077,-0.00004196,0.00013189,-0.0
 0013825,-0.00000024,-0.00039047,0.00053020,-0.00012412,0.00055616,-0.0
 0015255,-0.00111191,-0.00004425,-0.00006621,-0.00002878,-0.00002773,0.
 00000245,-0.00003174,0.00009562,-0.00001894,0.00007273,0.00003876,-0.0
 0003197,-0.00006701,-0.00001871,-0.00011034,0.00009634,0.00000611,-0.0
 0002361,0.00000084,0.09064357,-0.12073636,-0.20254971,-0.00199181,0.00
 258541,-0.00074604,-0.00945483,0.01383149,0.01216515,0.01095977,-0.016
 30265,-0.01453433,0.00054592,0.00034706,0.00092172,-0.00021187,0.00023
 998,0.00011307,0.00007623,0.00035179,0.00090132,0.00053485,0.00294582,
 -0.00381127,-0.00054956,-0.00006453,0.00058525,-0.09089117,0.11662396,
 0.20717988\\0.,0.,0.,0.,0.,0.,-0.00000023,0.00000008,0.00000067,0.0000
 0013,0.00000026,-0.00000004,0.,0.,0.,0.00000027,0.00000039,-0.00000013
 ,-0.00000012,-0.00000003,0.00000002,0.,0.,0.,0.00000028,0.00000001,0.0
 0000032,-0.00000023,0.00000007,-0.00000009,-0.00000024,0.,0.00000004,0
 .00000001,0.00000023,-0.00000013,0.00000017,-0.00000051,-0.00000088,-0
 .00000005,0.00000001,0.00000015,0.00000043,-0.00000045,-0.00000073,0.0
 0000010,-0.00000020,-0.00000037,0.00000001,0.00000016,0.00000045,0.000
 00029,-0.00000016,-0.00000014,-0.00000022,-0.00000063,0.00000036,-0.00
 000004,0.00000015,-0.00000005,-0.00000022,-0.00000023,0.00000055,0.000
 00013,0.00000015,-0.00000015,0.00000031,0.00000010,0.00000105,-0.00000
 033,0.00000003,-0.00000052,0.00000012,0.00000033,-0.00000011,-0.000000
 14,0.00000009,0.00000003,0.00000009,0.00000069,-0.00000014,-0.00000014
 ,-0.00000094,-0.00000021,0.00000047,0.00000013,0.00000006,0.00000013,-
 0.00000007,0.00000034,-0.00000025,-0.00000015,0.00000024,-0.00000004,0
 .00000007,0.00000008,0.00000007,0.00000024,-0.00000004,0.00000009,-0.0
 0000023,-0.00000017,-0.00000030,0.00000017,-0.00000020,-0.00000012,0.0
 0000008,0.00000006\\\@


 NOTHING MAKES A PERSON MORE PRODUCTIVE THAN THE LAST MINUTE.
 Job cpu time:       0 days 13 hours 30 minutes  9.5 seconds.
 Elapsed time:       0 days  0 hours 12 minutes 41.6 seconds.
 File lengths (MBytes):  RWF=    876 Int=      0 D2E=      0 Chk=     15 Scr=      1
 Normal termination of Gaussian 16 at Sat Oct  5 17:22:01 2019.
