 Entering Gaussian System, Link 0=g16
 Input=Zn_PO_TEABr_CO_bind_opt_freq3_re.com
 Output=Zn_PO_TEABr_CO_bind_opt_freq3_re.log
 Initial command:
 /apps/commercial/G16/g16.linda/l1.exe "/scratch/x1711a05/Gau-4715.inp" -scrdir="/scratch/x1711a05/"
 Default linda workers: node6534
 Entering Link 1 = /apps/commercial/G16/g16.linda/l1.exe PID=      4716.
  
 Copyright (c) 1988,1990,1992,1993,1995,1998,2003,2009,2016,
            Gaussian, Inc.  All Rights Reserved.
  
 This is part of the Gaussian(R) 16 program.  It is based on
 the Gaussian(R) 09 system (copyright 2009, Gaussian, Inc.),
 the Gaussian(R) 03 system (copyright 2003, Gaussian, Inc.),
 the Gaussian(R) 98 system (copyright 1998, Gaussian, Inc.),
 the Gaussian(R) 94 system (copyright 1995, Gaussian, Inc.),
 the Gaussian 92(TM) system (copyright 1992, Gaussian, Inc.),
 the Gaussian 90(TM) system (copyright 1990, Gaussian, Inc.),
 the Gaussian 88(TM) system (copyright 1988, Gaussian, Inc.),
 the Gaussian 86(TM) system (copyright 1986, Carnegie Mellon
 University), and the Gaussian 82(TM) system (copyright 1983,
 Carnegie Mellon University). Gaussian is a federally registered
 trademark of Gaussian, Inc.
  
 This software contains proprietary and confidential information,
 including trade secrets, belonging to Gaussian, Inc.
  
 This software is provided under written license and may be
 used, copied, transmitted, or stored only in accord with that
 written license.
  
 The following legend is applicable only to US Government
 contracts under FAR:
  
                    RESTRICTED RIGHTS LEGEND
  
 Use, reproduction and disclosure by the US Government is
 subject to restrictions as set forth in subparagraphs (a)
 and (c) of the Commercial Computer Software - Restricted
 Rights clause in FAR 52.227-19.
  
 Gaussian, Inc.
 340 Quinnipiac St., Bldg. 40, Wallingford CT 06492
  
  
 ---------------------------------------------------------------
 Warning -- This program may not be used in any manner that
 competes with the business of Gaussian, Inc. or will provide
 assistance to any competitor of Gaussian, Inc.  The licensee
 of this program is prohibited from giving any competitor of
 Gaussian, Inc. access to this program.  By using this program,
 the user acknowledges that Gaussian, Inc. is engaged in the
 business of creating and licensing software in the field of
 computational chemistry and represents and warrants to the
 licensee that it is not a competitor of Gaussian, Inc. and that
 it will not use this program in any manner prohibited above.
 ---------------------------------------------------------------
  

 Cite this work as:
 Gaussian 16, Revision A.03,
 M. J. Frisch, G. W. Trucks, H. B. Schlegel, G. E. Scuseria, 
 M. A. Robb, J. R. Cheeseman, G. Scalmani, V. Barone, 
 G. A. Petersson, H. Nakatsuji, X. Li, M. Caricato, A. V. Marenich, 
 J. Bloino, B. G. Janesko, R. Gomperts, B. Mennucci, H. P. Hratchian, 
 J. V. Ortiz, A. F. Izmaylov, J. L. Sonnenberg, D. Williams-Young, 
 F. Ding, F. Lipparini, F. Egidi, J. Goings, B. Peng, A. Petrone, 
 T. Henderson, D. Ranasinghe, V. G. Zakrzewski, J. Gao, N. Rega, 
 G. Zheng, W. Liang, M. Hada, M. Ehara, K. Toyota, R. Fukuda, 
 J. Hasegawa, M. Ishida, T. Nakajima, Y. Honda, O. Kitao, H. Nakai, 
 T. Vreven, K. Throssell, J. A. Montgomery, Jr., J. E. Peralta, 
 F. Ogliaro, M. J. Bearpark, J. J. Heyd, E. N. Brothers, K. N. Kudin, 
 V. N. Staroverov, T. A. Keith, R. Kobayashi, J. Normand, 
 K. Raghavachari, A. P. Rendell, J. C. Burant, S. S. Iyengar, 
 J. Tomasi, M. Cossi, J. M. Millam, M. Klene, C. Adamo, R. Cammi, 
 J. W. Ochterski, R. L. Martin, K. Morokuma, O. Farkas, 
 J. B. Foresman, and D. J. Fox, Gaussian, Inc., Wallingford CT, 2016.
 
 ******************************************
 Gaussian 16:  ES64L-G16RevA.03 25-Dec-2016
                18-Nov-2019 
 ******************************************
 %nprocshared=64
 Will use up to   64 processors via shared memory.
 %mem=64GB
 %chk=Zn_PO_TEABr_CO_bind_opt_freq3_re.chk
 SetLPE:    new flags="-opt 'Tsnet.Node.lindarsharg: ssh'  -nodelist 'node6534' -env GAUSS_MDEF=8589934592 -env GAUSS_EXEDIR="/apps/commercial/G16/g16.linda""
 Will use up to    1 processors via Linda.
 ----------------------------------------------------------------------
 # opt=(calcall,tight,cartesian) freq cam-b3lyp/gen nosymm scf=(qc,maxc
 ycle=1024,vshift=100) pseudo=read
 ----------------------------------------------------------------------
 1/7=10,10=4,18=10,26=3,38=1/1,3;
 2/12=2,15=1,17=6,18=5,29=2,40=1/2;
 3/5=7,11=2,16=1,17=8,25=1,30=1,71=2,74=-40,140=1/1,2,3;
 4//1;
 5/5=2,7=1024,8=3,10=100,38=5/8;
 8/6=4,10=90,11=11/1;
 11/6=1,8=1,9=11,15=111,16=1,31=1/1,2,10;
 10/6=1,31=1/2;
 6/7=2,8=2,9=2,10=2,18=1,28=1/1;
 7/7=1,10=1,25=1,30=1/1,2,3,16;
 1/7=10,10=4,18=10,26=3/3(3);
 2/15=1,29=1/2;
 7/7=1,8=1,9=1,25=1,30=1,44=-1/16;
 99/12=1/99;
 2/15=1,29=1/2;
 3/5=7,6=1,11=2,16=1,17=8,25=1,30=1,71=2,74=-40,82=7,140=1/1,2,3;
 4/5=5,16=3,69=1/1;
 5/5=2,7=1024,8=3,10=100,38=5/8;
 8/6=4,10=90,11=11/1;
 11/6=1,8=1,9=11,15=111,16=1,31=1/1,2,10;
 10/6=1,31=1/2;
 7/7=1,10=1,25=1,30=1/1,2,3,16;
 1/7=10,10=4,18=10,26=3/3(-8);
 2/15=1,29=1/2;
 6/7=2,8=2,9=2,10=2,18=1,19=2,28=1/1;
 7/7=1,8=1,9=1,25=1,30=1,44=-1/16;
 99/12=1/99;
 --------------------------------
 Zn_PO_TEABr_CO_bind_opt_freq3_re
 --------------------------------
 Symbolic Z-matrix:
 Charge =  0 Multiplicity = 1
 Li                   -1   -0.65617  -5.03839  -3.45744 
 N                    -1   -0.28279  -3.67558  -2.19468 
 C                    0    -0.88055  -4.0996   -1.04385 
 Cl                   0    -1.59514  -5.6833   -1.02981 
 N                    -1    2.32823   2.59905  -2.41943 
 C                    0     3.25585   1.61855  -2.30673 
 Cl                   0     4.89361   1.82281  -2.83467 
 N                    -1   -3.32748   2.07508   1.06573 
 C                    0    -3.49359   2.08111  -0.27674 
 Cl                   0    -4.80831   2.89646  -1.05079 
 Zn                   0     0.11018  -0.07883  -0.03274 
 N                    0    -0.14701  -2.06368  -0.64985 
 C                    0    -0.80682  -3.12458  -0.09248 
 Cl                   0    -1.38944  -3.12502   1.51166 
 N                    0    -1.6631    0.89123   0.09704 
 C                    0    -2.49224   1.36336  -0.87943 
 Cl                   0    -2.2388    1.01763  -2.55409 
 N                    0     1.39553   0.78048  -1.43672 
 C                    0     2.705     0.51299  -1.7053 
 Cl                   0     3.45479  -0.98757  -1.2961 
 C                    0     0.13917  -2.44073  -1.89893 
 H                    0     0.66076  -1.79968  -2.59474 
 C                    0    -2.23115   1.35334   1.2422 
 H                    0    -1.81848   1.1088    2.21205 
 C                    0     1.23659   2.04519  -1.89663 
 H                    0     0.28005   2.54827  -1.84557 
 C                    0     1.55355   0.69245   5.06862 
 C                    0     0.17896   1.14698   5.55588 
 O                    0     1.68981   0.90017   3.65133 
 C                    0     1.91131  -0.72819   5.47145 
 H                    0    -0.12539   2.06517   5.05645 
 H                    0    -0.58195   0.38599   5.42302 
 H                    0     2.91425  -0.97573   5.11569 
 H                    0     1.19766  -1.43344   5.04492 
 H                    0     1.89689  -0.81801   6.5599 
 H                    0     2.29552   1.38139   5.48265 
 N                    0     3.12546   3.95582   1.46049 
 C                    0     2.84603   4.03398   2.95341 
 C                    0     4.04157   4.17336   3.88571 
 H                    0     2.27591   3.1349    3.19281 
 H                    0     2.19669   4.90103   3.08883 
 H                    0     3.65252   4.12639   4.90619 
 H                    0     4.7721    3.37343   3.77902 
 H                    0     4.55103   5.13281   3.78095 
 C                    0     4.25959   4.88619   1.09772 
 C                    0     4.57797   5.00278  -0.38446 
 H                    0     5.13705   4.53446   1.63726 
 H                    0     3.98663   5.86141   1.50958 
 H                    0     5.3988    5.71764  -0.48367 
 H                    0     4.90982   4.06144  -0.82417 
 H                    0     3.74278   5.37616  -0.97705 
 C                    0     1.87331   4.41681   0.71637 
 C                    0     0.56136   3.82556   1.20544 
 H                    0     2.03307   4.15275  -0.3292 
 H                    0     1.86093   5.50635   0.80655 
 H                    0    -0.21523   4.1097    0.49176 
 H                    0     0.57502   2.73666   1.24631 
 H                    0     0.2572    4.20944   2.18041 
 C                    0     3.41228   2.5288    1.01291 
 C                    0     4.56949   1.81514   1.68407 
 H                    0     3.56237   2.58701  -0.0622 
 H                    0     2.50543   1.95185   1.1928 
 H                    0     4.70484   0.87834   1.13812 
 H                    0     5.51838   2.35612   1.63921 
 H                    0     4.33959   1.54828   2.71634 
 Br                   0     0.24747   1.57056   7.47 
 C                    0     0.83834   0.21815   2.80047 
 O                    0    -0.10368  -0.42669   3.23632 
 O                    0     1.18211   0.40451   1.58189 
 

 GradGradGradGradGradGradGradGradGradGradGradGradGradGradGradGradGradGrad
 Berny optimization.
 Initialization pass.
 No Z-matrix variables, so optimization will use Cartesian coordinates.
 Trust Radius=3.00D-01 FncErr=1.00D-07 GrdErr=1.00D-06 EigMax=2.50D+02 EigMin=1.00D-04
 Number of steps in this run=    217 maximum allowed number of steps=    414.
 GradGradGradGradGradGradGradGradGradGradGradGradGradGradGradGradGradGrad

 Symmetry turned off by external request.
 Stoichiometry    C21H29BrCl6LiN7O3Zn
 Framework group  C1[X(C21H29BrCl6LiN7O3Zn)]
 Deg. of freedom   201
 Full point group                 C1      NOp   1
                          Input orientation:                          
 ---------------------------------------------------------------------
 Center     Atomic      Atomic             Coordinates (Angstroms)
 Number     Number       Type             X           Y           Z
 ---------------------------------------------------------------------
      1          3           0       -0.656174   -5.038394   -3.457440
      2          7           0       -0.282792   -3.675582   -2.194684
      3          6           0       -0.880553   -4.099599   -1.043848
      4         17           0       -1.595141   -5.683300   -1.029808
      5          7           0        2.328228    2.599049   -2.419433
      6          6           0        3.255849    1.618551   -2.306728
      7         17           0        4.893607    1.822812   -2.834671
      8          7           0       -3.327483    2.075083    1.065729
      9          6           0       -3.493586    2.081110   -0.276738
     10         17           0       -4.808310    2.896461   -1.050793
     11         30           0        0.110179   -0.078830   -0.032743
     12          7           0       -0.147011   -2.063685   -0.649851
     13          6           0       -0.806821   -3.124581   -0.092483
     14         17           0       -1.389436   -3.125019    1.511663
     15          7           0       -1.663097    0.891230    0.097040
     16          6           0       -2.492237    1.363356   -0.879433
     17         17           0       -2.238804    1.017629   -2.554089
     18          7           0        1.395534    0.780478   -1.436720
     19          6           0        2.704995    0.512987   -1.705299
     20         17           0        3.454790   -0.987571   -1.296098
     21          6           0        0.139166   -2.440726   -1.898929
     22          1           0        0.660755   -1.799684   -2.594735
     23          6           0       -2.231154    1.353342    1.242197
     24          1           0       -1.818481    1.108799    2.212052
     25          6           0        1.236585    2.045185   -1.896627
     26          1           0        0.280045    2.548265   -1.845566
     27          6           0        1.553546    0.692451    5.068625
     28          6           0        0.178962    1.146975    5.555878
     29          8           0        1.689814    0.900174    3.651330
     30          6           0        1.911306   -0.728189    5.471449
     31          1           0       -0.125385    2.065169    5.056450
     32          1           0       -0.581950    0.385990    5.423018
     33          1           0        2.914246   -0.975733    5.115694
     34          1           0        1.197662   -1.433439    5.044921
     35          1           0        1.896888   -0.818010    6.559898
     36          1           0        2.295518    1.381394    5.482650
     37          7           0        3.125460    3.955821    1.460492
     38          6           0        2.846031    4.033977    2.953405
     39          6           0        4.041575    4.173362    3.885712
     40          1           0        2.275905    3.134900    3.192810
     41          1           0        2.196687    4.901027    3.088831
     42          1           0        3.652522    4.126390    4.906193
     43          1           0        4.772100    3.373426    3.779018
     44          1           0        4.551025    5.132805    3.780947
     45          6           0        4.259588    4.886186    1.097716
     46          6           0        4.577971    5.002778   -0.384462
     47          1           0        5.137046    4.534461    1.637261
     48          1           0        3.986634    5.861406    1.509582
     49          1           0        5.398798    5.717641   -0.483671
     50          1           0        4.909822    4.061439   -0.824170
     51          1           0        3.742775    5.376164   -0.977050
     52          6           0        1.873305    4.416811    0.716374
     53          6           0        0.561359    3.825556    1.205435
     54          1           0        2.033072    4.152748   -0.329195
     55          1           0        1.860929    5.506346    0.806548
     56          1           0       -0.215230    4.109698    0.491762
     57          1           0        0.575024    2.736657    1.246309
     58          1           0        0.257195    4.209441    2.180415
     59          6           0        3.412279    2.528799    1.012912
     60          6           0        4.569486    1.815141    1.684073
     61          1           0        3.562367    2.587014   -0.062202
     62          1           0        2.505433    1.951845    1.192798
     63          1           0        4.704840    0.878340    1.138117
     64          1           0        5.518384    2.356119    1.639205
     65          1           0        4.339590    1.548282    2.716343
     66         35           0        0.247468    1.570556    7.470000
     67          6           0        0.838344    0.218146    2.800474
     68          8           0       -0.103679   -0.426685    3.236322
     69          8           0        1.182111    0.404514    1.581889
 ---------------------------------------------------------------------
 Rotational constants (GHZ):           0.0556001           0.0443550           0.0363996
 General basis read from cards:  (5D, 7F)
 ======================================================================================================
                                       Pseudopotential Parameters
 ======================================================================================================
  Center     Atomic      Valence      Angular      Power
  Number     Number     Electrons     Momentum     of R      Exponent        Coefficient   SO-Coeffient
 ======================================================================================================
    1          3
                                   No pseudopotential on this center.
    2          7
                                   No pseudopotential on this center.
    3          6
                                   No pseudopotential on this center.
    4         17
                                   No pseudopotential on this center.
    5          7
                                   No pseudopotential on this center.
    6          6
                                   No pseudopotential on this center.
    7         17
                                   No pseudopotential on this center.
    8          7
                                   No pseudopotential on this center.
    9          6
                                   No pseudopotential on this center.
   10         17
                                   No pseudopotential on this center.
   11         30           12
                                      F and up 
                                                     1      386.7379660      -18.00000000    0.00000000
                                                     2       72.8587359     -124.35274030    0.00000000
                                                     2       15.9066170      -30.66018220    0.00000000
                                                     2        4.3502340      -10.63589890    0.00000000
                                                     2        1.2842199       -0.76836230    0.00000000
                                      S - F
                                                     0       19.0867858        3.00000000    0.00000000
                                                     1        5.0231080       22.52342250    0.00000000
                                                     2        1.2701744       48.44659420    0.00000000
                                                     2        1.0671287      -44.55601190    0.00000000
                                                     2        0.9264190       12.99839580    0.00000000
                                      P - F
                                                     0       43.4927750        5.00000000    0.00000000
                                                     1       20.8692669       20.74355890    0.00000000
                                                     2       21.7118378       90.30271580    0.00000000
                                                     2        6.3616915       74.66103160    0.00000000
                                                     2        1.2291195        9.88944240    0.00000000
                                      D - F
                                                     2       13.5851800       -4.84903590    0.00000000
                                                     2        9.8373050        3.69133790    0.00000000
                                                     2        0.8373113       -0.50373190    0.00000000
   12          7
                                   No pseudopotential on this center.
   13          6
                                   No pseudopotential on this center.
   14         17
                                   No pseudopotential on this center.
   15          7
                                   No pseudopotential on this center.
   16          6
                                   No pseudopotential on this center.
   17         17
                                   No pseudopotential on this center.
   18          7
                                   No pseudopotential on this center.
   19          6
                                   No pseudopotential on this center.
   20         17
                                   No pseudopotential on this center.
   21          6
                                   No pseudopotential on this center.
   22          1
                                   No pseudopotential on this center.
   23          6
                                   No pseudopotential on this center.
   24          1
                                   No pseudopotential on this center.
   25          6
                                   No pseudopotential on this center.
   26          1
                                   No pseudopotential on this center.
   27          6
                                   No pseudopotential on this center.
   28          6
                                   No pseudopotential on this center.
   29          8
                                   No pseudopotential on this center.
   30          6
                                   No pseudopotential on this center.
   31          1
                                   No pseudopotential on this center.
   32          1
                                   No pseudopotential on this center.
   33          1
                                   No pseudopotential on this center.
   34          1
                                   No pseudopotential on this center.
   35          1
                                   No pseudopotential on this center.
   36          1
                                   No pseudopotential on this center.
   37          7
                                   No pseudopotential on this center.
   38          6
                                   No pseudopotential on this center.
   39          6
                                   No pseudopotential on this center.
   40          1
                                   No pseudopotential on this center.
   41          1
                                   No pseudopotential on this center.
   42          1
                                   No pseudopotential on this center.
   43          1
                                   No pseudopotential on this center.
   44          1
                                   No pseudopotential on this center.
   45          6
                                   No pseudopotential on this center.
   46          6
                                   No pseudopotential on this center.
   47          1
                                   No pseudopotential on this center.
   48          1
                                   No pseudopotential on this center.
   49          1
                                   No pseudopotential on this center.
   50          1
                                   No pseudopotential on this center.
   51          1
                                   No pseudopotential on this center.
   52          6
                                   No pseudopotential on this center.
   53          6
                                   No pseudopotential on this center.
   54          1
                                   No pseudopotential on this center.
   55          1
                                   No pseudopotential on this center.
   56          1
                                   No pseudopotential on this center.
   57          1
                                   No pseudopotential on this center.
   58          1
                                   No pseudopotential on this center.
   59          6
                                   No pseudopotential on this center.
   60          6
                                   No pseudopotential on this center.
   61          1
                                   No pseudopotential on this center.
   62          1
                                   No pseudopotential on this center.
   63          1
                                   No pseudopotential on this center.
   64          1
                                   No pseudopotential on this center.
   65          1
                                   No pseudopotential on this center.
   66         35
                                   No pseudopotential on this center.
   67          6
                                   No pseudopotential on this center.
   68          8
                                   No pseudopotential on this center.
   69          8
                                   No pseudopotential on this center.
 ======================================================================================================
   747 basis functions,  1533 primitive gaussians,   789 cartesian basis functions
   190 alpha electrons      190 beta electrons
       nuclear repulsion energy      7256.5458707032 Hartrees.
 NAtoms=   69 NActive=   69 NUniq=   69 SFac= 1.00D+00 NAtFMM=   60 NAOKFM=T Big=T
 Integral buffers will be    131072 words long.
 Raffenetti 2 integral format.
 Two-electron integral symmetry is turned off.
 One-electron integrals computed using PRISM.
   1 Symmetry operations used in ECPInt.
 ECPInt:  NShTT=   34716 NPrTT=  206045 LenC2=   25977 LenP2D=   79052.
 LDataN:  DoStor=T MaxTD1= 5 Len=  102
 NBasis=   747 RedAO= T EigKep=  1.37D-03  NBF=   747
 NBsUse=   747 1.00D-06 EigRej= -1.00D+00 NBFU=   747
 ExpMin= 3.51D-02 ExpMax= 5.74D+05 ExpMxC= 5.74D+03 IAcc=3 IRadAn=         5 AccDes= 0.00D+00
 Harris functional with IExCor=20419 and IRadAn=       5 diagonalized for initial guess.
 HarFok:  IExCor=20419 AccDes= 0.00D+00 IRadAn=         5 IDoV= 1 UseB2=F ITyADJ=14
 ICtDFT=  3500011 ScaDFX=  1.000000  1.000000  1.000000  1.000000
 FoFCou: FMM=F IPFlag=           0 FMFlag=      100000 FMFlg1=        2001
         NFxFlg=           0 DoJE=T BraDBF=F KetDBF=T FulRan=T
         wScrn=  0.000000 ICntrl=       500 IOpCl=  0 I1Cent=   200000004 NGrid=           0
         NMat0=    1 NMatS0=      1 NMatT0=    0 NMatD0=    1 NMtDS0=    0 NMtDT0=    0
 Symmetry not used in FoFCou.
 Gradient too large for Newton-Raphson -- use scaled steepest descent instead.
 Gradient too large for Newton-Raphson -- use scaled steepest descent instead.
 Gradient too large for Newton-Raphson -- use scaled steepest descent instead.
 Gradient too large for Newton-Raphson -- use scaled steepest descent instead.
     Accept linear search using points  1 and  2.
 Gradient too large for Newton-Raphson -- use scaled steepest descent instead.
 Gradient too large for Newton-Raphson -- use scaled steepest descent instead.
     Accept linear search using points  1 and  2.
 LinEq1:  Iter=  0 NonCon=     1 RMS=2.28D-05 Max=1.96D-03 NDo=     1
 AX will form     1 AO Fock derivatives at one time.
 LinEq1:  Iter=  1 NonCon=     1 RMS=8.07D-06 Max=3.54D-04 NDo=     1
 LinEq1:  Iter=  2 NonCon=     1 RMS=2.89D-06 Max=1.01D-04 NDo=     1
 LinEq1:  Iter=  3 NonCon=     1 RMS=1.48D-06 Max=7.30D-05 NDo=     1
 LinEq1:  Iter=  4 NonCon=     1 RMS=6.36D-07 Max=3.51D-05 NDo=     1
 LinEq1:  Iter=  5 NonCon=     1 RMS=3.29D-07 Max=1.61D-05 NDo=     1
 LinEq1:  Iter=  6 NonCon=     1 RMS=1.93D-07 Max=1.06D-05 NDo=     1
 LinEq1:  Iter=  7 NonCon=     1 RMS=9.85D-08 Max=5.09D-06 NDo=     1
 LinEq1:  Iter=  8 NonCon=     1 RMS=5.84D-08 Max=2.23D-06 NDo=     1
 LinEq1:  Iter=  9 NonCon=     1 RMS=2.53D-08 Max=9.28D-07 NDo=     1
 LinEq1:  Iter= 10 NonCon=     1 RMS=1.42D-08 Max=4.61D-07 NDo=     1
 LinEq1:  Iter= 11 NonCon=     0 RMS=6.18D-09 Max=3.87D-07 NDo=     1
 Linear equations converged to 4.601D-08 4.601D-07 after    11 iterations.
     Accept linear search using points  1 and  2.
     Minimum is close to point  2 DX= -7.73D-05 DF=  0.00D+00 DXR=  7.73D-05 DFR=  0.00D+00 which will be used.
 LinEq1:  Iter=  0 NonCon=     1 RMS=3.18D-08 Max=2.25D-06 NDo=     1
 LinEq1:  Iter=  1 NonCon=     1 RMS=1.88D-08 Max=1.09D-06 NDo=     1
 LinEq1:  Iter=  2 NonCon=     1 RMS=1.07D-08 Max=5.96D-07 NDo=     1
 LinEq1:  Iter=  3 NonCon=     1 RMS=4.92D-09 Max=3.55D-07 NDo=     1
 LinEq1:  Iter=  4 NonCon=     1 RMS=2.64D-09 Max=1.41D-07 NDo=     1
 LinEq1:  Iter=  5 NonCon=     1 RMS=1.36D-09 Max=8.89D-08 NDo=     1
 LinEq1:  Iter=  6 NonCon=     1 RMS=6.69D-10 Max=3.79D-08 NDo=     1
 LinEq1:  Iter=  7 NonCon=     1 RMS=4.20D-10 Max=3.49D-08 NDo=     1
 LinEq1:  Iter=  8 NonCon=     1 RMS=2.14D-10 Max=1.44D-08 NDo=     1
 LinEq1:  Iter=  9 NonCon=     1 RMS=8.60D-11 Max=3.78D-09 NDo=     1
 LinEq1:  Iter= 10 NonCon=     1 RMS=5.11D-11 Max=2.27D-09 NDo=     1
 LinEq1:  Iter= 11 NonCon=     1 RMS=2.78D-11 Max=1.22D-09 NDo=     1
 LinEq1:  Iter= 12 NonCon=     0 RMS=1.66D-11 Max=6.09D-10 NDo=     1
 Linear equations converged to 1.093D-10 1.093D-09 after    12 iterations.
 Restarting incremental Fock formation.
 QCLLim is confused:  Bigger=T Turned=T
 NLin=  3 IMin12=  1  2 I12=  0  2 IX=  1 XLMin= 0.000D+00 XLMax= 0.000D+00
 X = 0.000D+00 1.000D+00 2.000D+00
 DE= 0.000D+00 9.095D-12 8.004D-11
 LinEq1:  Iter=  0 NonCon=     1 RMS=2.08D-08 Max=1.47D-06 NDo=     1
 LinEq1:  Iter=  1 NonCon=     1 RMS=1.23D-08 Max=7.16D-07 NDo=     1
 LinEq1:  Iter=  2 NonCon=     1 RMS=7.01D-09 Max=3.90D-07 NDo=     1
 LinEq1:  Iter=  3 NonCon=     1 RMS=3.22D-09 Max=2.32D-07 NDo=     1
 LinEq1:  Iter=  4 NonCon=     1 RMS=1.73D-09 Max=9.22D-08 NDo=     1
 LinEq1:  Iter=  5 NonCon=     1 RMS=8.90D-10 Max=5.81D-08 NDo=     1
 LinEq1:  Iter=  6 NonCon=     1 RMS=4.38D-10 Max=2.48D-08 NDo=     1
 LinEq1:  Iter=  7 NonCon=     1 RMS=2.75D-10 Max=2.28D-08 NDo=     1
 LinEq1:  Iter=  8 NonCon=     1 RMS=1.40D-10 Max=9.41D-09 NDo=     1
 LinEq1:  Iter=  9 NonCon=     1 RMS=5.63D-11 Max=2.47D-09 NDo=     1
 LinEq1:  Iter= 10 NonCon=     1 RMS=3.35D-11 Max=1.49D-09 NDo=     1
 LinEq1:  Iter= 11 NonCon=     1 RMS=1.82D-11 Max=7.99D-10 NDo=     1
 LinEq1:  Iter= 12 NonCon=     0 RMS=1.08D-11 Max=3.98D-10 NDo=     1
 Linear equations converged to 7.152D-11 7.152D-10 after    12 iterations.
 LinEq1:  Iter=  0 NonCon=     1 RMS=3.25D-08 Max=2.30D-06 NDo=     1
 LinEq1:  Iter=  1 NonCon=     1 RMS=1.93D-08 Max=1.12D-06 NDo=     1
 LinEq1:  Iter=  2 NonCon=     1 RMS=1.10D-08 Max=6.11D-07 NDo=     1
 LinEq1:  Iter=  3 NonCon=     1 RMS=5.04D-09 Max=3.63D-07 NDo=     1
 LinEq1:  Iter=  4 NonCon=     1 RMS=2.71D-09 Max=1.44D-07 NDo=     1
 LinEq1:  Iter=  5 NonCon=     1 RMS=1.39D-09 Max=9.10D-08 NDo=     1
 LinEq1:  Iter=  6 NonCon=     1 RMS=6.85D-10 Max=3.88D-08 NDo=     1
 LinEq1:  Iter=  7 NonCon=     1 RMS=4.30D-10 Max=3.57D-08 NDo=     1
 LinEq1:  Iter=  8 NonCon=     1 RMS=2.20D-10 Max=1.47D-08 NDo=     1
 LinEq1:  Iter=  9 NonCon=     1 RMS=8.80D-11 Max=3.87D-09 NDo=     1
 LinEq1:  Iter= 10 NonCon=     1 RMS=5.24D-11 Max=2.32D-09 NDo=     1
 LinEq1:  Iter= 11 NonCon=     1 RMS=2.85D-11 Max=1.25D-09 NDo=     1
 LinEq1:  Iter= 12 NonCon=     0 RMS=1.70D-11 Max=6.24D-10 NDo=     1
 Linear equations converged to 1.119D-10 1.119D-09 after    12 iterations.
 SCF Done:  E(RCAM-B3LYP) =  -6831.79273346     a.u. after   11 cycles
            Convg  =    0.3772D-09                    74 Fock formations.
              S**2 =  0.0000                  -V/T =  1.9949
 DoSCS=F DFT=T ScalE2(SS,OS)=  1.000000  1.000000
 Range of M.O.s used for correlation:     1   747
 NBasis=   747 NAE=   190 NBE=   190 NFC=     0 NFV=     0
 NROrb=    747 NOA=   190 NOB=   190 NVA=   557 NVB=   557
   1 Symmetry operations used in ECPInt.
 ECPInt:  NShTT=   34716 NPrTT=  206045 LenC2=   25977 LenP2D=   79052.
 LDataN:  DoStor=T MaxTD1= 6 Len=  172
 Number of processors reduced to  11 by ecpmxn.
 Symmetrizing basis deriv contribution to polar:
 IMax=3 JMax=2 DiffMx= 0.00D+00
 G2DrvN: will do    70 centers at a time, making    1 passes.
 Calling FoFCou, ICntrl=  3107 FMM=T I1Cent=   0 AccDes= 0.00D+00.
 End of G2Drv F.D. properties file   721 does not exist.
 End of G2Drv F.D. properties file   722 does not exist.
 End of G2Drv F.D. properties file   788 does not exist.
          IDoAtm=00110110111111111111111111111111111111111111111111
          IDoAtm=1111111111111111111
          Differentiating once with respect to electric field.
                with respect to dipole field.
          Differentiating once with respect to nuclear coordinates.
 CalDSu exits because no D1Ps are significant.
          There are   198 degrees of freedom in the 1st order CPHF.  IDoFFX=6 NUNeed=     3.
    198 vectors produced by pass  0 Test12= 1.06D-13 1.00D-09 XBig12= 1.83D+02 2.74D+00.
 AX will form    96 AO Fock derivatives at one time.
    198 vectors produced by pass  1 Test12= 1.06D-13 1.00D-09 XBig12= 2.32D+01 6.54D-01.
    198 vectors produced by pass  2 Test12= 1.06D-13 1.00D-09 XBig12= 6.11D-01 8.60D-02.
    198 vectors produced by pass  3 Test12= 1.06D-13 1.00D-09 XBig12= 1.31D-02 1.99D-02.
    198 vectors produced by pass  4 Test12= 1.06D-13 1.00D-09 XBig12= 1.15D-04 2.21D-03.
    198 vectors produced by pass  5 Test12= 1.06D-13 1.00D-09 XBig12= 6.27D-07 1.23D-04.
    119 vectors produced by pass  6 Test12= 1.06D-13 1.00D-09 XBig12= 2.72D-09 5.35D-06.
     38 vectors produced by pass  7 Test12= 1.06D-13 1.00D-09 XBig12= 1.13D-11 2.73D-07.
      3 vectors produced by pass  8 Test12= 1.06D-13 1.00D-09 XBig12= 4.51D-14 1.95D-08.
      1 vectors produced by pass  9 Test12= 1.06D-13 1.00D-09 XBig12= 1.83D-16 1.14D-09.
 InvSVY:  IOpt=1 It=  1 EMax= 1.24D-14
 Solved reduced A of dimension  1349 with   198 vectors.
 Isotropic polarizability for W=    0.000000      356.68 Bohr**3.
 End of Minotr F.D. properties file   721 does not exist.
 End of Minotr F.D. properties file   722 does not exist.
 End of Minotr F.D. properties file   788 does not exist.

 **********************************************************************

            Population analysis using the SCF density.

 **********************************************************************

 Alpha  occ. eigenvalues -- -482.71445-101.65026-101.60575-101.59838-101.58953
 Alpha  occ. eigenvalues -- -101.57911-101.55842 -61.79703 -56.36683 -56.36322
 Alpha  occ. eigenvalues --  -56.36311 -19.24053 -19.18904 -19.16874 -14.54714
 Alpha  occ. eigenvalues --  -14.43125 -14.42971 -14.39944 -14.38037 -14.37165
 Alpha  occ. eigenvalues --  -14.34194 -10.39823 -10.34595 -10.34281 -10.34141
 Alpha  occ. eigenvalues --  -10.33543 -10.32753 -10.32512 -10.31889 -10.31094
 Alpha  occ. eigenvalues --  -10.30701 -10.30290 -10.29704 -10.28961 -10.28654
 Alpha  occ. eigenvalues --  -10.28128 -10.28004 -10.27648 -10.26889 -10.26387
 Alpha  occ. eigenvalues --  -10.25597 -10.23724  -9.58238  -9.53759  -9.53015
 Alpha  occ. eigenvalues --   -9.52170  -9.51085  -9.49105  -8.57953  -7.34626
 Alpha  occ. eigenvalues --   -7.33751  -7.33627  -7.30247  -7.29450  -7.29168
 Alpha  occ. eigenvalues --   -7.29154  -7.28594  -7.28458  -7.28442  -7.27624
 Alpha  occ. eigenvalues --   -7.27592  -7.27513  -7.26530  -7.26521  -7.25533
 Alpha  occ. eigenvalues --   -7.24544  -7.24528  -6.59702  -6.58465  -6.58444
 Alpha  occ. eigenvalues --   -2.71855  -2.71509  -2.71492  -2.70510  -2.70510
 Alpha  occ. eigenvalues --   -2.15259  -1.17688  -1.11824  -1.11493  -1.07899
 Alpha  occ. eigenvalues --   -1.07532  -1.05068  -1.04420  -0.99570  -0.96815
 Alpha  occ. eigenvalues --   -0.94787  -0.93623  -0.92482  -0.91999  -0.90994
 Alpha  occ. eigenvalues --   -0.89932  -0.89265  -0.89196  -0.88401  -0.88172
 Alpha  occ. eigenvalues --   -0.85892  -0.83699  -0.82189  -0.80650  -0.76564
 Alpha  occ. eigenvalues --   -0.76277  -0.75969  -0.74618  -0.74178  -0.73908
 Alpha  occ. eigenvalues --   -0.70195  -0.68560  -0.67055  -0.66803  -0.66371
 Alpha  occ. eigenvalues --   -0.66295  -0.65789  -0.65443  -0.64900  -0.63561
 Alpha  occ. eigenvalues --   -0.61599  -0.61503  -0.61262  -0.60924  -0.59992
 Alpha  occ. eigenvalues --   -0.59585  -0.59430  -0.58717  -0.57214  -0.56456
 Alpha  occ. eigenvalues --   -0.55452  -0.55069  -0.54313  -0.53814  -0.53441
 Alpha  occ. eigenvalues --   -0.52969  -0.52650  -0.52045  -0.51730  -0.51208
 Alpha  occ. eigenvalues --   -0.50197  -0.50035  -0.49395  -0.49014  -0.48834
 Alpha  occ. eigenvalues --   -0.48281  -0.48106  -0.47938  -0.47744  -0.47459
 Alpha  occ. eigenvalues --   -0.47084  -0.46750  -0.46300  -0.46270  -0.45793
 Alpha  occ. eigenvalues --   -0.45657  -0.45333  -0.44683  -0.44513  -0.43968
 Alpha  occ. eigenvalues --   -0.43727  -0.43461  -0.43213  -0.43000  -0.42845
 Alpha  occ. eigenvalues --   -0.42748  -0.42356  -0.41746  -0.41537  -0.40317
 Alpha  occ. eigenvalues --   -0.40044  -0.39904  -0.39359  -0.38891  -0.37839
 Alpha  occ. eigenvalues --   -0.37713  -0.37489  -0.36529  -0.36072  -0.35820
 Alpha  occ. eigenvalues --   -0.35654  -0.35481  -0.34417  -0.33395  -0.32865
 Alpha  occ. eigenvalues --   -0.32540  -0.32513  -0.32144  -0.30569  -0.30381
 Alpha  occ. eigenvalues --   -0.29223  -0.28474  -0.28035  -0.25046  -0.22478
 Alpha virt. eigenvalues --   -0.05257   0.00648   0.01381   0.05547   0.06165
 Alpha virt. eigenvalues --    0.06308   0.06834   0.08539   0.08709   0.09703
 Alpha virt. eigenvalues --    0.10009   0.10794   0.10923   0.10964   0.11443
 Alpha virt. eigenvalues --    0.11965   0.12119   0.12472   0.12818   0.12911
 Alpha virt. eigenvalues --    0.13187   0.13292   0.13598   0.13875   0.14078
 Alpha virt. eigenvalues --    0.14228   0.14582   0.14917   0.15473   0.15579
 Alpha virt. eigenvalues --    0.15936   0.16061   0.16598   0.17327   0.17477
 Alpha virt. eigenvalues --    0.17913   0.18046   0.19014   0.19808   0.19862
 Alpha virt. eigenvalues --    0.20332   0.20733   0.21075   0.21170   0.21782
 Alpha virt. eigenvalues --    0.21872   0.22429   0.22657   0.23367   0.23519
 Alpha virt. eigenvalues --    0.23944   0.24419   0.24936   0.25423   0.25543
 Alpha virt. eigenvalues --    0.26081   0.26764   0.26923   0.27373   0.27895
 Alpha virt. eigenvalues --    0.28050   0.28278   0.28455   0.28866   0.29952
 Alpha virt. eigenvalues --    0.30242   0.30618   0.31319   0.32006   0.32559
 Alpha virt. eigenvalues --    0.32743   0.33248   0.34022   0.34684   0.36026
 Alpha virt. eigenvalues --    0.36296   0.37623   0.38756   0.40099   0.40852
 Alpha virt. eigenvalues --    0.41115   0.41972   0.42055   0.42403   0.42817
 Alpha virt. eigenvalues --    0.44244   0.45242   0.45417   0.45797   0.46866
 Alpha virt. eigenvalues --    0.47720   0.47913   0.48159   0.48620   0.48971
 Alpha virt. eigenvalues --    0.49435   0.49515   0.49755   0.50092   0.50344
 Alpha virt. eigenvalues --    0.50557   0.50818   0.51184   0.51474   0.51703
 Alpha virt. eigenvalues --    0.52188   0.52435   0.52916   0.53359   0.53582
 Alpha virt. eigenvalues --    0.53806   0.53992   0.54108   0.54315   0.54999
 Alpha virt. eigenvalues --    0.55898   0.56619   0.56811   0.57209   0.57575
 Alpha virt. eigenvalues --    0.57611   0.57873   0.58364   0.58819   0.59570
 Alpha virt. eigenvalues --    0.59876   0.60090   0.60380   0.60560   0.62228
 Alpha virt. eigenvalues --    0.62422   0.62517   0.63034   0.63558   0.63811
 Alpha virt. eigenvalues --    0.64937   0.65492   0.65747   0.66197   0.66604
 Alpha virt. eigenvalues --    0.66760   0.67054   0.67182   0.67968   0.68257
 Alpha virt. eigenvalues --    0.68587   0.69182   0.69466   0.69827   0.70857
 Alpha virt. eigenvalues --    0.71400   0.71522   0.71968   0.72398   0.72944
 Alpha virt. eigenvalues --    0.73550   0.73638   0.74151   0.74302   0.74612
 Alpha virt. eigenvalues --    0.75626   0.75998   0.76033   0.77373   0.77677
 Alpha virt. eigenvalues --    0.78310   0.79064   0.79270   0.80324   0.80788
 Alpha virt. eigenvalues --    0.81477   0.81691   0.82808   0.83688   0.84590
 Alpha virt. eigenvalues --    0.84934   0.85346   0.85748   0.86281   0.86560
 Alpha virt. eigenvalues --    0.87094   0.87617   0.87818   0.88263   0.88536
 Alpha virt. eigenvalues --    0.88652   0.88987   0.89293   0.89942   0.90185
 Alpha virt. eigenvalues --    0.90310   0.90411   0.91294   0.91529   0.91609
 Alpha virt. eigenvalues --    0.91840   0.92032   0.92731   0.92959   0.93110
 Alpha virt. eigenvalues --    0.93174   0.93204   0.93761   0.94274   0.94401
 Alpha virt. eigenvalues --    0.94835   0.94998   0.95113   0.95262   0.95982
 Alpha virt. eigenvalues --    0.96117   0.96515   0.96718   0.96959   0.97305
 Alpha virt. eigenvalues --    0.97420   0.97632   0.98330   0.98467   0.99196
 Alpha virt. eigenvalues --    0.99508   0.99805   0.99998   1.00429   1.00721
 Alpha virt. eigenvalues --    1.01185   1.01806   1.01905   1.02212   1.02387
 Alpha virt. eigenvalues --    1.02557   1.03136   1.03319   1.03633   1.03731
 Alpha virt. eigenvalues --    1.04048   1.04638   1.04943   1.05509   1.06194
 Alpha virt. eigenvalues --    1.06594   1.07082   1.07635   1.07743   1.08185
 Alpha virt. eigenvalues --    1.08545   1.08651   1.09889   1.10229   1.10268
 Alpha virt. eigenvalues --    1.10639   1.11532   1.11764   1.12278   1.12782
 Alpha virt. eigenvalues --    1.13665   1.14363   1.15212   1.15381   1.16163
 Alpha virt. eigenvalues --    1.16938   1.18352   1.18731   1.19365   1.19781
 Alpha virt. eigenvalues --    1.20241   1.20589   1.22081   1.23278   1.24281
 Alpha virt. eigenvalues --    1.24705   1.25158   1.26282   1.26943   1.28413
 Alpha virt. eigenvalues --    1.28925   1.30047   1.32246   1.33124   1.33864
 Alpha virt. eigenvalues --    1.34864   1.35546   1.36047   1.37038   1.37393
 Alpha virt. eigenvalues --    1.38364   1.39245   1.39889   1.41553   1.41871
 Alpha virt. eigenvalues --    1.42624   1.43907   1.44876   1.45600   1.45919
 Alpha virt. eigenvalues --    1.46599   1.46911   1.47426   1.48017   1.48569
 Alpha virt. eigenvalues --    1.48974   1.50136   1.51355   1.51823   1.52135
 Alpha virt. eigenvalues --    1.52702   1.53632   1.54835   1.55646   1.57858
 Alpha virt. eigenvalues --    1.58628   1.58776   1.59295   1.60281   1.61533
 Alpha virt. eigenvalues --    1.62651   1.63378   1.63754   1.64306   1.64972
 Alpha virt. eigenvalues --    1.65613   1.65858   1.66139   1.66550   1.66962
 Alpha virt. eigenvalues --    1.68020   1.68481   1.69096   1.69752   1.71024
 Alpha virt. eigenvalues --    1.71226   1.71871   1.72744   1.72936   1.73913
 Alpha virt. eigenvalues --    1.74992   1.75433   1.76457   1.77222   1.78114
 Alpha virt. eigenvalues --    1.79086   1.80643   1.81119   1.81387   1.83105
 Alpha virt. eigenvalues --    1.86165   1.86761   1.87719   1.88829   1.89494
 Alpha virt. eigenvalues --    1.89690   1.90822   1.92374   1.93400   1.93434
 Alpha virt. eigenvalues --    1.94096   1.94893   1.95554   1.96447   1.96684
 Alpha virt. eigenvalues --    1.97516   1.98398   1.99112   1.99833   2.00388
 Alpha virt. eigenvalues --    2.01258   2.01777   2.02154   2.03073   2.04096
 Alpha virt. eigenvalues --    2.04204   2.06137   2.06397   2.06992   2.07947
 Alpha virt. eigenvalues --    2.09021   2.09070   2.09589   2.09941   2.10672
 Alpha virt. eigenvalues --    2.11051   2.11266   2.11743   2.12195   2.12344
 Alpha virt. eigenvalues --    2.12950   2.13767   2.13871   2.14604   2.15003
 Alpha virt. eigenvalues --    2.15723   2.16251   2.16634   2.17099   2.17726
 Alpha virt. eigenvalues --    2.18118   2.18827   2.19156   2.19695   2.19787
 Alpha virt. eigenvalues --    2.19934   2.20550   2.21028   2.21275   2.22397
 Alpha virt. eigenvalues --    2.22754   2.23603   2.24077   2.24774   2.25436
 Alpha virt. eigenvalues --    2.25654   2.26499   2.27631   2.28441   2.29291
 Alpha virt. eigenvalues --    2.30075   2.30368   2.30493   2.31543   2.32370
 Alpha virt. eigenvalues --    2.33832   2.34136   2.34311   2.35218   2.36044
 Alpha virt. eigenvalues --    2.36229   2.36294   2.37051   2.37446   2.37734
 Alpha virt. eigenvalues --    2.38201   2.38475   2.39602   2.39961   2.41607
 Alpha virt. eigenvalues --    2.41985   2.43662   2.43788   2.44609   2.45147
 Alpha virt. eigenvalues --    2.46253   2.46951   2.48872   2.49914   2.50808
 Alpha virt. eigenvalues --    2.51238   2.51378   2.52650   2.53055   2.55129
 Alpha virt. eigenvalues --    2.58456   2.60419   2.61209   2.62543   2.64584
 Alpha virt. eigenvalues --    2.64961   2.65288   2.65481   2.66419   2.67369
 Alpha virt. eigenvalues --    2.67403   2.67797   2.68848   2.69098   2.70009
 Alpha virt. eigenvalues --    2.70088   2.71191   2.71337   2.71680   2.72590
 Alpha virt. eigenvalues --    2.73042   2.73633   2.73897   2.74364   2.74862
 Alpha virt. eigenvalues --    2.76021   2.77498   2.78157   2.78476   2.78752
 Alpha virt. eigenvalues --    2.79225   2.79838   2.80560   2.81611   2.82640
 Alpha virt. eigenvalues --    2.83153   2.85499   2.85759   2.85889   2.86675
 Alpha virt. eigenvalues --    2.86890   2.87351   2.88041   2.88925   2.89219
 Alpha virt. eigenvalues --    2.90621   2.91608   2.91905   2.91932   2.92302
 Alpha virt. eigenvalues --    2.93579   2.93744   2.94458   2.95421   2.95997
 Alpha virt. eigenvalues --    2.96871   2.97145   2.97678   2.98478   2.98840
 Alpha virt. eigenvalues --    2.99559   2.99664   3.00751   3.00954   3.01951
 Alpha virt. eigenvalues --    3.02342   3.04372   3.04887   3.06923   3.07631
 Alpha virt. eigenvalues --    3.13918   3.20348   3.24663   3.25609   3.26312
 Alpha virt. eigenvalues --    3.27117   3.27351   3.29284   3.30224   3.30576
 Alpha virt. eigenvalues --    3.31301   3.35424   3.37131   3.37796   3.38544
 Alpha virt. eigenvalues --    3.44877   3.46133   3.46733   3.47873   3.50260
 Alpha virt. eigenvalues --    3.50435   3.51924   3.52430   3.53370   3.56628
 Alpha virt. eigenvalues --    3.56751   3.57635   3.59511   3.59739   3.60568
 Alpha virt. eigenvalues --    3.62738   3.62869   3.63279   3.65959   3.70055
 Alpha virt. eigenvalues --    8.54611   9.40094
          Condensed to atoms (all electrons):
 Mulliken charges:
               1
     1  Li   0.607148
     2  N   -0.499154
     3  C    0.057273
     4  Cl   0.047208
     5  N   -0.388724
     6  C   -0.030436
     7  Cl  -0.036686
     8  N   -0.375711
     9  C    0.003524
    10  Cl  -0.038707
    11  Zn   1.038775
    12  N   -0.532068
    13  C    0.051292
    14  Cl   0.070095
    15  N   -0.579876
    16  C    0.028860
    17  Cl  -0.027082
    18  N   -0.548863
    19  C    0.033119
    20  Cl  -0.013711
    21  C    0.233772
    22  H    0.151934
    23  C    0.157819
    24  H    0.109126
    25  C    0.158035
    26  H    0.118181
    27  C    0.179232
    28  C   -0.197761
    29  O   -0.501079
    30  C   -0.334092
    31  H    0.143754
    32  H    0.191671
    33  H    0.106294
    34  H    0.148597
    35  H    0.119107
    36  H    0.098066
    37  N   -0.378203
    38  C   -0.074697
    39  C   -0.344076
    40  H    0.184176
    41  H    0.136310
    42  H    0.141542
    43  H    0.134767
    44  H    0.119827
    45  C   -0.064160
    46  C   -0.347810
    47  H    0.143343
    48  H    0.132080
    49  H    0.126943
    50  H    0.160581
    51  H    0.148885
    52  C   -0.088941
    53  C   -0.349705
    54  H    0.180514
    55  H    0.124894
    56  H    0.156190
    57  H    0.162350
    58  H    0.116686
    59  C   -0.090485
    60  C   -0.346443
    61  H    0.153409
    62  H    0.201429
    63  H    0.160281
    64  H    0.101918
    65  H    0.134020
    66  Br  -0.188841
    67  C    0.725062
    68  O   -0.482196
    69  O   -0.638583
 Sum of Mulliken charges =   0.00000
 Mulliken charges with hydrogens summed into heavy atoms:
               1
     1  Li   0.607148
     2  N   -0.499154
     3  C    0.057273
     4  Cl   0.047208
     5  N   -0.388724
     6  C   -0.030436
     7  Cl  -0.036686
     8  N   -0.375711
     9  C    0.003524
    10  Cl  -0.038707
    11  Zn   1.038775
    12  N   -0.532068
    13  C    0.051292
    14  Cl   0.070095
    15  N   -0.579876
    16  C    0.028860
    17  Cl  -0.027082
    18  N   -0.548863
    19  C    0.033119
    20  Cl  -0.013711
    21  C    0.385706
    23  C    0.266945
    25  C    0.276216
    27  C    0.277298
    28  C    0.137665
    29  O   -0.501079
    30  C    0.039906
    37  N   -0.378203
    38  C    0.245788
    39  C    0.052060
    45  C    0.211263
    46  C    0.088600
    52  C    0.216467
    53  C    0.085520
    59  C    0.264353
    60  C    0.049776
    66  Br  -0.188841
    67  C    0.725062
    68  O   -0.482196
    69  O   -0.638583
 Electronic spatial extent (au):  <R**2>=          33799.7339
 Charge=              0.0000 electrons
 Dipole moment (field-independent basis, Debye):
    X=              9.8685    Y=             -5.2147    Z=             -4.1734  Tot=             11.9163
 Quadrupole moment (field-independent basis, Debye-Ang):
   XX=           -307.1265   YY=           -198.2745   ZZ=           -285.5842
   XY=             53.5009   XZ=             36.9225   YZ=             71.4476
 Traceless Quadrupole moment (field-independent basis, Debye-Ang):
   XX=            -43.4648   YY=             65.3873   ZZ=            -21.9225
   XY=             53.5009   XZ=             36.9225   YZ=             71.4476
 Octapole moment (field-independent basis, Debye-Ang**2):
  XXX=           -394.1175  YYY=           -738.9870  ZZZ=           -908.8018  XYY=            -39.3848
  XXY=           -165.2848  XXZ=           -111.8949  XZZ=           -200.4370  YZZ=           -442.6874
  YYZ=           -377.2434  XYZ=             55.8490
 Hexadecapole moment (field-independent basis, Debye-Ang**3):
 XXXX=         -12710.7557 YYYY=         -10576.5733 ZZZZ=         -16067.7459 XXXY=          -1578.0285
 XXXZ=           -409.5040 YYYX=          -1253.0057 YYYZ=            157.8072 ZZZX=           -480.4775
 ZZZY=           -983.4081 XXYY=          -3870.2444 XXZZ=          -4665.1583 YYZZ=          -3725.5708
 XXYZ=           -263.0168 YYXZ=            248.1914 ZZXY=           -575.1632
 N-N= 7.256545870703D+03 E-N=-3.080571100817D+04  KE= 6.866691650603D+03
  Exact polarizability: 342.035   9.396 349.880 -14.448  13.719 378.140
 Approx polarizability: 405.533  -5.693 412.046 -25.599   2.595 446.806
   1 Symmetry operations used in ECPInt.
 ECPInt:  NShTT=   34716 NPrTT=  206045 LenC2=   25977 LenP2D=   79052.
 LDataN:  DoStor=T MaxTD1= 7 Len=  274
 Calling FoFJK, ICntrl=    100127 FMM=F ISym2X=0 I1Cent= 0 IOpClX= 0 NMat=1 NMatS=1 NMatT=0.
 -------------------------------------------------------------------
 Center     Atomic                   Forces (Hartrees/Bohr)
 Number     Number              X              Y              Z
 -------------------------------------------------------------------
      1        3          -0.000000000   -0.000000000   -0.000000000
      2        7          -0.000000000   -0.000000000   -0.000000000
      3        6          -0.000000069    0.000000440    0.000000413
      4       17          -0.000000034   -0.000000167   -0.000000035
      5        7          -0.000000000   -0.000000000   -0.000000000
      6        6          -0.000000643   -0.000000473    0.000000243
      7       17           0.000000207    0.000000025   -0.000000060
      8        7          -0.000000000   -0.000000000   -0.000000000
      9        6          -0.000000358    0.000000153    0.000000219
     10       17           0.000000102   -0.000000069    0.000000038
     11       30           0.000000174    0.000000065    0.000000104
     12        7           0.000000214   -0.000000301   -0.000000928
     13        6          -0.000000365   -0.000000438    0.000000638
     14       17           0.000000137   -0.000000015   -0.000000422
     15        7          -0.000000295    0.000000055    0.000000056
     16        6           0.000000151    0.000000062    0.000000200
     17       17           0.000000067   -0.000000072   -0.000000332
     18        7           0.000000193   -0.000000164   -0.000000200
     19        6          -0.000000033    0.000000620   -0.000000072
     20       17           0.000000064   -0.000000108    0.000000025
     21        6           0.000000042    0.000000418    0.000000544
     22        1          -0.000000012    0.000000011   -0.000000058
     23        6           0.000000220   -0.000000099    0.000000175
     24        1          -0.000000025    0.000000030   -0.000000031
     25        6           0.000000668    0.000000220   -0.000000002
     26        1          -0.000000273    0.000000032   -0.000000000
     27        6          -0.000000174   -0.000000343    0.000000168
     28        6           0.000000108   -0.000000040    0.000000128
     29        8           0.000000470    0.000000431    0.000000277
     30        6           0.000000173    0.000000197   -0.000000015
     31        1          -0.000000094    0.000000078   -0.000000048
     32        1           0.000000071    0.000000043   -0.000000062
     33        1          -0.000000228   -0.000000034    0.000000077
     34        1           0.000000024   -0.000000061   -0.000000107
     35        1           0.000000060    0.000000045   -0.000000011
     36        1          -0.000000064    0.000000001   -0.000000104
     37        7           0.000000522    0.000000381    0.000000272
     38        6          -0.000000256   -0.000000316    0.000000291
     39        6          -0.000000515    0.000000336   -0.000000007
     40        1           0.000000266    0.000000436   -0.000000078
     41        1           0.000000122   -0.000000157   -0.000000015
     42        1           0.000000044   -0.000000011   -0.000000063
     43        1           0.000000279   -0.000000297   -0.000000042
     44        1          -0.000000022   -0.000000060   -0.000000021
     45        6          -0.000000389    0.000000323   -0.000000232
     46        6           0.000000073   -0.000000381   -0.000000495
     47        1           0.000000112   -0.000000185    0.000000135
     48        1          -0.000000007   -0.000000088    0.000000032
     49        1          -0.000000061   -0.000000062    0.000000013
     50        1          -0.000000076    0.000000390    0.000000236
     51        1           0.000000127   -0.000000011    0.000000199
     52        6          -0.000000360    0.000000232    0.000000388
     53        6           0.000000472   -0.000000415   -0.000000411
     54        1           0.000000052   -0.000000004   -0.000000340
     55        1           0.000000113   -0.000000278   -0.000000086
     56        1          -0.000000158    0.000000113   -0.000000113
     57        1          -0.000000018   -0.000000018   -0.000000004
     58        1          -0.000000154    0.000000270    0.000000455
     59        6          -0.000000384   -0.000000263   -0.000000223
     60        6           0.000000001    0.000000100    0.000000200
     61        1          -0.000000005    0.000000000    0.000000109
     62        1           0.000000172    0.000000012   -0.000000048
     63        1           0.000000016   -0.000000040   -0.000000025
     64        1           0.000000013   -0.000000039   -0.000000013
     65        1           0.000000015    0.000000018   -0.000000119
     66       35          -0.000000004    0.000000023    0.000000031
     67        6          -0.000000583   -0.000000686   -0.000000025
     68        8           0.000000168    0.000000226   -0.000000079
     69        8           0.000000015    0.000000119   -0.000000318
 -------------------------------------------------------------------
 Cartesian Forces:  Max     0.000000928 RMS     0.000000237

 GradGradGradGradGradGradGradGradGradGradGradGradGradGradGradGradGradGrad
 Berny optimization.
 Search for a local minimum.
 Step number   1 out of a maximum of  217
 All quantities printed in internal units (Hartrees-Bohrs-Radians)
 Second derivative matrix not updated -- analytic derivatives used.
 ITU=  0
     Eigenvalues ---    0.00001   0.00004   0.00005   0.00008   0.00010
     Eigenvalues ---    0.00016   0.00019   0.00026   0.00030   0.00038
     Eigenvalues ---    0.00051   0.00060   0.00095   0.00110   0.00117
     Eigenvalues ---    0.00139   0.00164   0.00175   0.00187   0.00227
     Eigenvalues ---    0.00243   0.00300   0.00303   0.00340   0.00374
     Eigenvalues ---    0.00391   0.00435   0.00509   0.00510   0.00537
     Eigenvalues ---    0.00643   0.00662   0.00799   0.00893   0.00966
     Eigenvalues ---    0.01067   0.01293   0.01317   0.01365   0.01388
     Eigenvalues ---    0.01401   0.01464   0.01559   0.01709   0.01954
     Eigenvalues ---    0.02627   0.02746   0.02819   0.02843   0.02914
     Eigenvalues ---    0.02941   0.03006   0.03098   0.03154   0.03488
     Eigenvalues ---    0.03568   0.03669   0.03732   0.03781   0.03937
     Eigenvalues ---    0.03997   0.04020   0.04605   0.04624   0.05220
     Eigenvalues ---    0.05470   0.05669   0.05703   0.05863   0.06170
     Eigenvalues ---    0.06301   0.06539   0.06635   0.06731   0.06898
     Eigenvalues ---    0.07016   0.07071   0.07120   0.07192   0.07387
     Eigenvalues ---    0.07399   0.07458   0.07800   0.07932   0.08001
     Eigenvalues ---    0.08130   0.08211   0.08639   0.08800   0.09500
     Eigenvalues ---    0.10003   0.10018   0.10197   0.10502   0.10732
     Eigenvalues ---    0.11272   0.11489   0.11533   0.11610   0.11644
     Eigenvalues ---    0.11672   0.12140   0.13201   0.13284   0.14132
     Eigenvalues ---    0.14265   0.14298   0.14505   0.15450   0.15933
     Eigenvalues ---    0.16167   0.16548   0.16657   0.16849   0.17139
     Eigenvalues ---    0.17228   0.17658   0.18335   0.20632   0.20705
     Eigenvalues ---    0.20911   0.21021   0.21126   0.21185   0.22385
     Eigenvalues ---    0.23044   0.23700   0.24267   0.24711   0.27652
     Eigenvalues ---    0.27901   0.28513   0.29105   0.31876   0.33199
     Eigenvalues ---    0.34143   0.34444   0.34985   0.35123   0.35992
     Eigenvalues ---    0.37234   0.37650   0.44564   0.48274   0.48584
     Eigenvalues ---    0.49422   0.51506   0.53789   0.55145   0.55442
     Eigenvalues ---    0.56339   0.65189   0.65374   0.65936   0.66068
     Eigenvalues ---    0.66262   0.66721   0.67925   0.68741   0.72344
     Eigenvalues ---    0.79509   0.80532   0.80841   0.81670   0.82157
     Eigenvalues ---    0.84281   0.84489   0.84768   0.84846   0.85111
     Eigenvalues ---    0.85819   0.85895   0.85996   0.87913   0.89645
     Eigenvalues ---    0.90349   0.90554   0.91393   0.93012   0.93545
     Eigenvalues ---    0.94402   0.95658   0.96349   0.96935   0.97064
     Eigenvalues ---    0.98590   0.99639   1.01539   1.11323   1.12171
     Eigenvalues ---    1.15318   1.15477   1.18691   1.21398   1.64006
 RFO step:  Lambda= 0.00000000D+00 EMin= 8.71498916D-06
 Linear search not attempted -- first point.
 Variable       Old X    -DE/DX   Delta X   Delta X   Delta X     New X
                                 (Linear)    (Quad)   (Total)
    X1       -1.23999  -0.00000   0.00000   0.00000   0.00000  -1.23999
    Y1       -9.52118  -0.00000   0.00000   0.00000   0.00000  -9.52118
    Z1       -6.53361  -0.00000   0.00000   0.00000   0.00000  -6.53361
    X2       -0.53440  -0.00000   0.00000   0.00000   0.00000  -0.53440
    Y2       -6.94584  -0.00000   0.00000   0.00000   0.00000  -6.94584
    Z2       -4.14735  -0.00000   0.00000   0.00000   0.00000  -4.14735
    X3       -1.66400  -0.00000   0.00000   0.00000   0.00000  -1.66400
    Y3       -7.74712   0.00000   0.00000   0.00000   0.00000  -7.74712
    Z3       -1.97259   0.00000   0.00000   0.00000   0.00000  -1.97259
    X4       -3.01438  -0.00000   0.00000   0.00000   0.00000  -3.01438
    Y4      -10.73988  -0.00000   0.00000  -0.00000  -0.00000 -10.73988
    Z4       -1.94606  -0.00000   0.00000   0.00000   0.00000  -1.94606
    X5        4.39971  -0.00000   0.00000   0.00000   0.00000   4.39971
    Y5        4.91149  -0.00000   0.00000   0.00000   0.00000   4.91149
    Z5       -4.57207  -0.00000   0.00000   0.00000   0.00000  -4.57207
    X6        6.15266  -0.00000   0.00000  -0.00000  -0.00000   6.15266
    Y6        3.05862  -0.00000   0.00000  -0.00000  -0.00000   3.05862
    Z6       -4.35908   0.00000   0.00000  -0.00000  -0.00000  -4.35908
    X7        9.24758   0.00000   0.00000   0.00000   0.00000   9.24758
    Y7        3.44462   0.00000   0.00000  -0.00000  -0.00000   3.44461
    Z7       -5.35675  -0.00000   0.00000  -0.00000  -0.00000  -5.35675
    X8       -6.28803  -0.00000   0.00000   0.00000   0.00000  -6.28803
    Y8        3.92134  -0.00000   0.00000   0.00000   0.00000   3.92134
    Z8        2.01394  -0.00000   0.00000   0.00000   0.00000   2.01394
    X9       -6.60192  -0.00000   0.00000  -0.00000  -0.00000  -6.60192
    Y9        3.93273   0.00000   0.00000  -0.00000  -0.00000   3.93273
    Z9       -0.52296   0.00000   0.00000   0.00000   0.00000  -0.52296
   X10       -9.08639   0.00000   0.00000  -0.00000  -0.00000  -9.08639
   Y10        5.47352  -0.00000   0.00000  -0.00000  -0.00000   5.47352
   Z10       -1.98571   0.00000   0.00000   0.00000   0.00000  -1.98571
   X11        0.20821   0.00000   0.00000   0.00000   0.00000   0.20821
   Y11       -0.14897   0.00000   0.00000   0.00000   0.00000  -0.14897
   Z11       -0.06188   0.00000   0.00000  -0.00000  -0.00000  -0.06188
   X12       -0.27781   0.00000   0.00000   0.00000   0.00000  -0.27781
   Y12       -3.89980  -0.00000   0.00000  -0.00000  -0.00000  -3.89980
   Z12       -1.22804  -0.00000   0.00000  -0.00000  -0.00000  -1.22804
   X13       -1.52467  -0.00000   0.00000   0.00000   0.00000  -1.52467
   Y13       -5.90460  -0.00000   0.00000  -0.00000  -0.00000  -5.90460
   Z13       -0.17477   0.00000   0.00000   0.00000   0.00000  -0.17477
   X14       -2.62565   0.00000   0.00000   0.00000   0.00000  -2.62565
   Y14       -5.90543  -0.00000   0.00000  -0.00000  -0.00000  -5.90543
   Z14        2.85663  -0.00000   0.00000   0.00000   0.00000   2.85663
   X15       -3.14280  -0.00000   0.00000  -0.00000  -0.00000  -3.14280
   Y15        1.68418   0.00000   0.00000  -0.00000  -0.00000   1.68418
   Z15        0.18338   0.00000   0.00000   0.00000   0.00000   0.18338
   X16       -4.70965   0.00000   0.00000   0.00000   0.00000  -4.70965
   Y16        2.57637   0.00000   0.00000   0.00000   0.00000   2.57637
   Z16       -1.66189   0.00000   0.00000   0.00000   0.00000  -1.66189
   X17       -4.23073   0.00000   0.00000   0.00000   0.00000  -4.23073
   Y17        1.92304  -0.00000   0.00000  -0.00000  -0.00000   1.92304
   Z17       -4.82653  -0.00000   0.00000  -0.00000  -0.00000  -4.82653
   X18        2.63718   0.00000   0.00000   0.00000   0.00000   2.63718
   Y18        1.47489  -0.00000   0.00000  -0.00000  -0.00000   1.47489
   Z18       -2.71501  -0.00000   0.00000  -0.00000  -0.00000  -2.71501
   X19        5.11170  -0.00000   0.00000  -0.00000  -0.00000   5.11170
   Y19        0.96940   0.00000   0.00000   0.00000   0.00000   0.96941
   Z19       -3.22255  -0.00000   0.00000  -0.00000  -0.00000  -3.22255
   X20        6.52861   0.00000   0.00000   0.00000   0.00000   6.52861
   Y20       -1.86624  -0.00000   0.00000  -0.00000  -0.00000  -1.86624
   Z20       -2.44927   0.00000   0.00000  -0.00000  -0.00000  -2.44927
   X21        0.26299   0.00000   0.00000   0.00000   0.00000   0.26299
   Y21       -4.61230   0.00000   0.00000   0.00000   0.00000  -4.61230
   Z21       -3.58846   0.00000   0.00000   0.00000   0.00000  -3.58846
   X22        1.24865  -0.00000   0.00000  -0.00000  -0.00000   1.24864
   Y22       -3.40091   0.00000   0.00000   0.00000   0.00000  -3.40091
   Z22       -4.90334  -0.00000   0.00000  -0.00000  -0.00000  -4.90334
   X23       -4.21627   0.00000   0.00000   0.00000   0.00000  -4.21627
   Y23        2.55745  -0.00000   0.00000  -0.00000  -0.00000   2.55745
   Z23        2.34741   0.00000   0.00000   0.00000   0.00000   2.34741
   X24       -3.43643  -0.00000   0.00000   0.00000   0.00000  -3.43643
   Y24        2.09533   0.00000   0.00000   0.00000   0.00000   2.09533
   Z24        4.18017  -0.00000   0.00000   0.00000   0.00000   4.18017
   X25        2.33681   0.00000   0.00000   0.00000   0.00000   2.33681
   Y25        3.86484   0.00000   0.00000   0.00000   0.00000   3.86484
   Z25       -3.58411  -0.00000   0.00000   0.00000   0.00000  -3.58410
   X26        0.52921  -0.00000   0.00000  -0.00000  -0.00000   0.52921
   Y26        4.81552   0.00000   0.00000  -0.00000  -0.00000   4.81552
   Z26       -3.48761  -0.00000   0.00000  -0.00000  -0.00000  -3.48761
   X27        2.93578  -0.00000   0.00000  -0.00000  -0.00000   2.93578
   Y27        1.30854  -0.00000   0.00000  -0.00000  -0.00000   1.30854
   Z27        9.57831   0.00000   0.00000   0.00000   0.00000   9.57831
   X28        0.33819   0.00000   0.00000   0.00000   0.00000   0.33819
   Y28        2.16747  -0.00000   0.00000   0.00000   0.00000   2.16747
   Z28       10.49909   0.00000   0.00000   0.00000   0.00000  10.49909
   X29        3.19329   0.00000   0.00000   0.00000   0.00000   3.19329
   Y29        1.70108   0.00000   0.00000   0.00000   0.00000   1.70108
   Z29        6.90001   0.00000   0.00000   0.00000   0.00000   6.90001
   X30        3.61184   0.00000   0.00000   0.00000   0.00000   3.61184
   Y30       -1.37608   0.00000   0.00000   0.00000   0.00000  -1.37608
   Z30       10.33954  -0.00000   0.00000   0.00000   0.00000  10.33954
   X31       -0.23694  -0.00000   0.00000  -0.00000  -0.00000  -0.23694
   Y31        3.90260   0.00000   0.00000   0.00000   0.00000   3.90260
   Z31        9.55531  -0.00000   0.00000   0.00000   0.00000   9.55531
   X32       -1.09973   0.00000   0.00000   0.00000   0.00000  -1.09973
   Y32        0.72942   0.00000   0.00000   0.00000   0.00000   0.72942
   Z32       10.24802  -0.00000   0.00000  -0.00000  -0.00000  10.24802
   X33        5.50713  -0.00000   0.00000  -0.00000  -0.00000   5.50713
   Y33       -1.84387  -0.00000   0.00000  -0.00000  -0.00000  -1.84387
   Z33        9.66726   0.00000   0.00000   0.00000   0.00000   9.66726
   X34        2.26325   0.00000   0.00000   0.00000   0.00000   2.26325
   Y34       -2.70881  -0.00000   0.00000  -0.00000  -0.00000  -2.70881
   Z34        9.53352  -0.00000   0.00000  -0.00000  -0.00000   9.53352
   X35        3.58460   0.00000   0.00000   0.00000   0.00000   3.58460
   Y35       -1.54581   0.00000   0.00000   0.00000   0.00000  -1.54581
   Z35       12.39641  -0.00000   0.00000   0.00000   0.00000  12.39641
   X36        4.33790  -0.00000   0.00000  -0.00000  -0.00000   4.33790
   Y36        2.61046   0.00000   0.00000   0.00000   0.00000   2.61046
   Z36       10.36071  -0.00000   0.00000  -0.00000  -0.00000  10.36071
   X37        5.90626   0.00000   0.00000   0.00000   0.00000   5.90626
   Y37        7.47542   0.00000   0.00000   0.00000   0.00000   7.47542
   Z37        2.75993   0.00000   0.00000   0.00000   0.00000   2.75993
   X38        5.37822  -0.00000   0.00000   0.00000   0.00000   5.37822
   Y38        7.62311  -0.00000   0.00000  -0.00000  -0.00000   7.62311
   Z38        5.58113   0.00000   0.00000   0.00000   0.00000   5.58113
   X39        7.63747  -0.00000   0.00000   0.00000   0.00000   7.63747
   Y39        7.88651   0.00000   0.00000  -0.00000  -0.00000   7.88651
   Z39        7.34293  -0.00000   0.00000  -0.00000  -0.00000   7.34293
   X40        4.30084   0.00000   0.00000   0.00000   0.00000   4.30084
   Y40        5.92410   0.00000   0.00000   0.00000   0.00000   5.92410
   Z40        6.03354  -0.00000   0.00000  -0.00000  -0.00000   6.03354
   X41        4.15114   0.00000   0.00000   0.00000   0.00000   4.15114
   Y41        9.26160  -0.00000   0.00000  -0.00000  -0.00000   9.26160
   Z41        5.83704  -0.00000   0.00000   0.00000   0.00000   5.83705
   X42        6.90227   0.00000   0.00000   0.00000   0.00000   6.90227
   Y42        7.79775  -0.00000   0.00000   0.00000   0.00000   7.79775
   Z42        9.27136  -0.00000   0.00000   0.00000   0.00000   9.27136
   X43        9.01796   0.00000   0.00000   0.00000   0.00000   9.01796
   Y43        6.37485  -0.00000   0.00000  -0.00000  -0.00000   6.37485
   Z43        7.14131  -0.00000   0.00000  -0.00000  -0.00000   7.14131
   X44        8.60019  -0.00000   0.00000   0.00000   0.00000   8.60019
   Y44        9.69960  -0.00000   0.00000  -0.00000  -0.00000   9.69960
   Z44        7.14495  -0.00000   0.00000  -0.00000  -0.00000   7.14495
   X45        8.04945  -0.00000   0.00000   0.00000   0.00000   8.04945
   Y45        9.23355   0.00000   0.00000   0.00000   0.00000   9.23355
   Z45        2.07438  -0.00000   0.00000  -0.00000  -0.00000   2.07438
   X46        8.65111   0.00000   0.00000   0.00000   0.00000   8.65111
   Y46        9.45388  -0.00000   0.00000  -0.00000  -0.00000   9.45388
   Z46       -0.72653  -0.00000   0.00000  -0.00000  -0.00000  -0.72653
   X47        9.70761   0.00000   0.00000   0.00000   0.00000   9.70761
   Y47        8.56889  -0.00000   0.00000  -0.00000  -0.00000   8.56889
   Z47        3.09397   0.00000   0.00000  -0.00000  -0.00000   3.09397
   X48        7.53365  -0.00000   0.00000   0.00000   0.00000   7.53365
   Y48       11.07645  -0.00000   0.00000   0.00000   0.00000  11.07645
   Z48        2.85270   0.00000   0.00000  -0.00000  -0.00000   2.85270
   X49       10.20225  -0.00000   0.00000   0.00000   0.00000  10.20225
   Y49       10.80478  -0.00000   0.00000  -0.00000  -0.00000  10.80477
   Z49       -0.91401   0.00000   0.00000  -0.00000  -0.00000  -0.91401
   X50        9.27822  -0.00000   0.00000   0.00000   0.00000   9.27822
   Y50        7.67501   0.00000   0.00000  -0.00000  -0.00000   7.67501
   Z50       -1.55746   0.00000   0.00000   0.00000   0.00000  -1.55745
   X51        7.07282   0.00000   0.00000   0.00000   0.00000   7.07282
   Y51       10.15948  -0.00000   0.00000  -0.00000  -0.00000  10.15948
   Z51       -1.84636   0.00000   0.00000  -0.00000  -0.00000  -1.84636
   X52        3.54003  -0.00000   0.00000   0.00000   0.00000   3.54003
   Y52        8.34656   0.00000   0.00000  -0.00000  -0.00000   8.34656
   Z52        1.35375   0.00000   0.00000   0.00000   0.00000   1.35375
   X53        1.06081   0.00000   0.00000   0.00000   0.00000   1.06082
   Y53        7.22925  -0.00000   0.00000  -0.00000  -0.00000   7.22925
   Z53        2.27794  -0.00000   0.00000  -0.00000  -0.00000   2.27794
   X54        3.84195   0.00000   0.00000   0.00000   0.00000   3.84195
   Y54        7.84756  -0.00000   0.00000   0.00000   0.00000   7.84756
   Z54       -0.62209  -0.00000   0.00000  -0.00000  -0.00000  -0.62209
   X55        3.51665   0.00000   0.00000   0.00000   0.00000   3.51665
   Y55       10.40549  -0.00000   0.00000  -0.00000  -0.00000  10.40548
   Z55        1.52415  -0.00000   0.00000  -0.00000  -0.00000   1.52415
   X56       -0.40673  -0.00000   0.00000   0.00000   0.00000  -0.40673
   Y56        7.76620   0.00000   0.00000   0.00000   0.00000   7.76620
   Z56        0.92930  -0.00000   0.00000  -0.00000  -0.00000   0.92930
   X57        1.08664  -0.00000   0.00000   0.00000   0.00000   1.08664
   Y57        5.17153  -0.00000   0.00000  -0.00000  -0.00000   5.17153
   Z57        2.35518  -0.00000   0.00000  -0.00000  -0.00000   2.35518
   X58        0.48603  -0.00000   0.00000   0.00000   0.00000   0.48603
   Y58        7.95469   0.00000   0.00000   0.00000   0.00000   7.95469
   Z58        4.12039   0.00000   0.00000   0.00000   0.00000   4.12039
   X59        6.44827  -0.00000   0.00000  -0.00000  -0.00000   6.44827
   Y59        4.77874  -0.00000   0.00000  -0.00000  -0.00000   4.77874
   Z59        1.91413  -0.00000   0.00000  -0.00000  -0.00000   1.91413
   X60        8.63508   0.00000   0.00000   0.00000   0.00000   8.63508
   Y60        3.43012   0.00000   0.00000  -0.00000  -0.00000   3.43012
   Z60        3.18244   0.00000   0.00000  -0.00000  -0.00000   3.18244
   X61        6.73190  -0.00000   0.00000   0.00000   0.00000   6.73190
   Y61        4.88875   0.00000   0.00000   0.00000   0.00000   4.88875
   Z61       -0.11754   0.00000   0.00000  -0.00000  -0.00000  -0.11754
   X62        4.73458   0.00000   0.00000   0.00000   0.00000   4.73458
   Y62        3.68845   0.00000   0.00000  -0.00000  -0.00000   3.68845
   Z62        2.25406  -0.00000   0.00000  -0.00000  -0.00000   2.25406
   X63        8.89086   0.00000   0.00000  -0.00000  -0.00000   8.89086
   Y63        1.65982  -0.00000   0.00000  -0.00000  -0.00000   1.65982
   Z63        2.15073  -0.00000   0.00000  -0.00000  -0.00000   2.15073
   X64       10.42823   0.00000   0.00000   0.00000   0.00000  10.42823
   Y64        4.45242  -0.00000   0.00000  -0.00000  -0.00000   4.45242
   Z64        3.09765  -0.00000   0.00000  -0.00000  -0.00000   3.09765
   X65        8.20064   0.00000   0.00000   0.00000   0.00000   8.20064
   Y65        2.92583   0.00000   0.00000   0.00000   0.00000   2.92583
   Z65        5.13314  -0.00000   0.00000  -0.00000  -0.00000   5.13314
   X66        0.46765  -0.00000   0.00000   0.00000   0.00000   0.46765
   Y66        2.96792   0.00000   0.00000   0.00000   0.00000   2.96792
   Z66       14.11625   0.00000   0.00000   0.00000   0.00000  14.11625
   X67        1.58424  -0.00000   0.00000  -0.00000  -0.00000   1.58424
   Y67        0.41224  -0.00000   0.00000  -0.00000  -0.00000   0.41224
   Z67        5.29213  -0.00000   0.00000  -0.00000  -0.00000   5.29213
   X68       -0.19592   0.00000   0.00000  -0.00000  -0.00000  -0.19593
   Y68       -0.80632   0.00000   0.00000   0.00000   0.00000  -0.80632
   Z68        6.11576  -0.00000   0.00000  -0.00000  -0.00000   6.11576
   X69        2.23387   0.00000   0.00000  -0.00000  -0.00000   2.23387
   Y69        0.76442   0.00000   0.00000   0.00000   0.00000   0.76442
   Z69        2.98934  -0.00000   0.00000  -0.00000  -0.00000   2.98934
         Item               Value     Threshold  Converged?
 Maximum Force            0.000001     0.000015     YES
 RMS     Force            0.000000     0.000010     YES
 Maximum Displacement     0.000003     0.000060     YES
 RMS     Displacement     0.000001     0.000040     YES
 Predicted change in Energy=-8.787348D-12
 Optimization completed.
    -- Stationary point found.
 GradGradGradGradGradGradGradGradGradGradGradGradGradGradGradGradGradGrad

 Symmetry turned off by external request.
 Stoichiometry    C21H29BrCl6LiN7O3Zn
 Framework group  C1[X(C21H29BrCl6LiN7O3Zn)]
 Deg. of freedom   201
 Full point group                 C1      NOp   1
                          Input orientation:                          
 ---------------------------------------------------------------------
 Center     Atomic      Atomic             Coordinates (Angstroms)
 Number     Number       Type             X           Y           Z
 ---------------------------------------------------------------------
      1          3           0       -0.656174   -5.038394   -3.457440
      2          7           0       -0.282792   -3.675582   -2.194684
      3          6           0       -0.880553   -4.099599   -1.043848
      4         17           0       -1.595141   -5.683300   -1.029808
      5          7           0        2.328228    2.599049   -2.419433
      6          6           0        3.255849    1.618551   -2.306728
      7         17           0        4.893607    1.822812   -2.834671
      8          7           0       -3.327483    2.075083    1.065729
      9          6           0       -3.493586    2.081110   -0.276738
     10         17           0       -4.808310    2.896461   -1.050793
     11         30           0        0.110179   -0.078830   -0.032743
     12          7           0       -0.147011   -2.063685   -0.649851
     13          6           0       -0.806821   -3.124581   -0.092483
     14         17           0       -1.389436   -3.125019    1.511663
     15          7           0       -1.663097    0.891230    0.097040
     16          6           0       -2.492237    1.363356   -0.879433
     17         17           0       -2.238804    1.017629   -2.554089
     18          7           0        1.395534    0.780478   -1.436720
     19          6           0        2.704995    0.512987   -1.705299
     20         17           0        3.454790   -0.987571   -1.296098
     21          6           0        0.139166   -2.440726   -1.898929
     22          1           0        0.660755   -1.799684   -2.594735
     23          6           0       -2.231154    1.353342    1.242197
     24          1           0       -1.818481    1.108799    2.212052
     25          6           0        1.236585    2.045185   -1.896627
     26          1           0        0.280045    2.548265   -1.845566
     27          6           0        1.553546    0.692451    5.068625
     28          6           0        0.178962    1.146975    5.555878
     29          8           0        1.689814    0.900174    3.651330
     30          6           0        1.911306   -0.728189    5.471449
     31          1           0       -0.125385    2.065169    5.056450
     32          1           0       -0.581950    0.385990    5.423018
     33          1           0        2.914246   -0.975733    5.115694
     34          1           0        1.197662   -1.433439    5.044921
     35          1           0        1.896888   -0.818010    6.559898
     36          1           0        2.295518    1.381394    5.482650
     37          7           0        3.125460    3.955821    1.460492
     38          6           0        2.846031    4.033977    2.953405
     39          6           0        4.041575    4.173362    3.885712
     40          1           0        2.275905    3.134900    3.192810
     41          1           0        2.196687    4.901027    3.088831
     42          1           0        3.652522    4.126390    4.906193
     43          1           0        4.772100    3.373426    3.779018
     44          1           0        4.551025    5.132805    3.780947
     45          6           0        4.259588    4.886186    1.097716
     46          6           0        4.577971    5.002778   -0.384462
     47          1           0        5.137046    4.534461    1.637261
     48          1           0        3.986634    5.861406    1.509582
     49          1           0        5.398798    5.717641   -0.483671
     50          1           0        4.909822    4.061439   -0.824170
     51          1           0        3.742775    5.376164   -0.977050
     52          6           0        1.873305    4.416811    0.716374
     53          6           0        0.561359    3.825556    1.205435
     54          1           0        2.033072    4.152748   -0.329195
     55          1           0        1.860929    5.506346    0.806548
     56          1           0       -0.215230    4.109698    0.491762
     57          1           0        0.575024    2.736657    1.246309
     58          1           0        0.257195    4.209441    2.180415
     59          6           0        3.412279    2.528799    1.012912
     60          6           0        4.569486    1.815141    1.684073
     61          1           0        3.562367    2.587014   -0.062202
     62          1           0        2.505433    1.951845    1.192798
     63          1           0        4.704840    0.878340    1.138117
     64          1           0        5.518384    2.356119    1.639205
     65          1           0        4.339590    1.548282    2.716343
     66         35           0        0.247468    1.570556    7.470000
     67          6           0        0.838344    0.218146    2.800474
     68          8           0       -0.103679   -0.426685    3.236322
     69          8           0        1.182111    0.404514    1.581889
 ---------------------------------------------------------------------
 Rotational constants (GHZ):           0.0556001           0.0443550           0.0363996
    4 atoms frozen in the vibrational analysis.
 Diagonal vibrational polarizability:
      848.0016276     398.7988982     255.4873042
 Harmonic frequencies (cm**-1), IR intensities (KM/Mole), Raman scattering
 activities (A**4/AMU), depolarization ratios for plane and unpolarized
 incident light, reduced masses (AMU), force constants (mDyne/A),
 and normal coordinates:
                      1                      2                      3
                      A                      A                      A
 Frequencies --      5.2889                 6.9790                10.5537
 Red. masses --     10.4270                16.4123                 7.1078
 Frc consts  --      0.0002                 0.0005                 0.0005
 IR Inten    --      0.3450                 0.2077                 2.3473
  Atom  AN      X      Y      Z        X      Y      Z        X      Y      Z
     3   6     0.11  -0.04   0.04     0.08  -0.03   0.03    -0.06   0.02  -0.02
[...]
 535,0.00032821,-0.00028863,-0.00090358,-0.00177294,-0.00019229,0.00011
 479,0.00024424,-0.00014441,-0.00006780,-0.00017310,-0.00011044,-0.0001
 0248,-0.00009579,0.00004064,0.00021079,0.00014471,0.00004926,-0.000420
 35,-0.00039603,-0.00003213,0.00014572,0.00010430,0.00001920,-0.0000201
 3,0.00000419,0.00000145,0.00000665,-0.00000735,0.00000199,0.00004079,0
 .00003555,-0.00005787,-0.00002802,0.00000223,0.00005998,-0.00003217,-0
 .00000562,0.00001378,0.00002794,-0.00012662,0.00021963,-0.00027220,-0.
 00032607,-0.00060979,0.00005796,0.00010478,0.00006466,0.00009766,0.000
 08153,-0.00001271,0.00009569,0.00049977,-0.00028990,0.00036459,-0.0008
 3084,0.00209040,0.00025448,-0.00045198,-0.00002493,-0.00097987,-0.0009
 3858,-0.00022581,0.00008491,-0.00005946,0.00061950,0.00031264,0.000370
 91,0.00008006,-0.00005138,-0.00015374,0.00214431,-0.00002043,0.0000404
 8,-0.00003216,0.00014970,0.00015564,-0.00024234,-0.00087072,-0.0000897
 1,-0.00028414,-0.00206470,-0.00067835,0.00079247,0.29675445,0.45326376
 ,0.,0.,0.,0.,0.,0.,-0.00020913,-0.00012613,0.00020367,0.00042986,0.001
 12886,0.00010803,0.,0.,0.,0.00141345,-0.00040015,-0.00054061,-0.001473
 58,-0.00038422,0.00041313,0.,0.,0.,0.00007813,-0.00040457,-0.00095017,
 0.00098926,-0.00074502,0.00031382,-0.01982283,-0.00741793,-0.03667080,
 0.00245412,0.00390089,0.00372923,-0.00308206,-0.00285896,0.00416574,0.
 00096213,0.00049956,-0.00167795,0.00821912,-0.00199575,0.00369021,-0.0
 0115837,0.00099993,-0.00431924,0.00024232,0.00002975,0.00025741,-0.001
 73926,-0.00165694,0.00554928,0.00345172,-0.00039932,-0.00104527,-0.000
 50745,0.00013669,0.00060400,0.00092152,-0.00115134,-0.00363837,-0.0000
 0573,-0.00014333,-0.00014672,-0.00285490,0.00243505,0.00530370,0.00011
 307,-0.00140328,0.00132214,-0.00034111,0.00371642,-0.00101519,-0.00003
 788,-0.00001596,-0.00012748,-0.02110942,-0.01805114,-0.04934842,0.0007
 0533,-0.00367570,-0.00354673,-0.01558904,-0.00670725,-0.12568128,-0.00
 233781,0.00043983,0.00471542,0.00111066,-0.00062494,0.00005991,0.00049
 483,0.00003327,-0.00076043,0.00028096,0.00066503,-0.00046341,-0.000566
 26,0.00194907,-0.00205334,0.00089148,-0.00164451,0.00156425,0.00143459
 ,0.00171120,-0.00083368,-0.00138601,-0.00060932,-0.00080667,-0.0011649
 8,-0.00023999,0.00273557,-0.00002293,0.00035689,-0.00055648,-0.0003719
 2,-0.00332131,0.00211475,0.00033372,0.00048977,-0.00040587,-0.00018335
 ,-0.00057038,-0.00052845,-0.00026190,-0.00017915,0.00042171,0.00021238
 ,0.00025966,-0.00000061,0.00061933,-0.00046761,-0.00102276,-0.00008214
 ,0.00004642,0.00006566,-0.00025567,0.00011805,0.00016626,-0.00018852,-
 0.00048635,0.00014663,-0.00005700,-0.00011919,-0.00011104,0.00024702,0
 .00002094,-0.00005767,0.00002624,0.00018502,-0.00009621,0.00162002,-0.
 00058293,-0.00018893,-0.00013422,0.00087396,0.00069161,-0.00000064,0.0
 0055348,-0.00008771,-0.00062067,-0.00049433,0.00001151,-0.00003638,-0.
 00048862,-0.00008745,-0.00119045,0.00431945,-0.00046536,0.00023242,-0.
 00154907,-0.00031222,-0.00069175,-0.00045117,0.00080527,0.00037940,-0.
 00100543,0.00186146,-0.00018034,-0.00005238,-0.00005064,0.00654647,0.0
 0898707,-0.00089553,0.00087322,-0.00015233,-0.00031657,-0.00065354,0.0
 0004250,-0.00080075,-0.00159269,0.00006141,-0.00041543,-0.00089753,0.0
 0144986,0.00474922,-0.19583947,-0.12231221,0.77858624,0.,0.,0.,0.,0.,0
 .,0.00023674,0.00050959,-0.00006060,0.00003019,0.00003733,-0.00008335,
 0.,0.,0.,0.00029635,-0.00011216,-0.00004681,-0.00008631,-0.00001379,0.
 00006376,0.,0.,0.,0.00053741,-0.00061431,-0.00059845,-0.00046412,0.000
 22910,-0.00042428,-0.01027353,-0.00360480,-0.00387856,0.00108166,0.000
 69236,0.00015227,-0.00148633,-0.00081404,0.00266502,0.00059300,-0.0001
 2629,-0.00142838,0.00215031,0.00019207,-0.00051712,-0.00101163,0.00092
 966,-0.00055727,0.00018394,-0.00014288,-0.00085823,0.00050683,-0.00001
 372,0.00151631,0.00054837,0.00002374,-0.00019919,0.00002082,0.00002141
 ,0.00018206,0.00008977,-0.00033556,-0.00058084,-0.00005262,-0.00009991
 ,-0.00011650,0.00003796,0.00064573,0.00441440,0.00071776,-0.00186097,-
 0.00047755,-0.00038091,0.00066239,0.00001478,-0.00009279,-0.00013262,-
 0.00002798,-0.00304189,-0.00065722,0.01567580,-0.00235176,-0.00038934,
 -0.00050350,-0.05073685,-0.05848661,-0.01785537,0.00088675,0.00066427,
 -0.00283289,-0.00042279,-0.00046561,0.00004777,0.00169115,0.00050301,-
 0.00236225,0.00037471,-0.00029308,0.00031357,-0.00238282,0.00108375,-0
 .00214719,-0.00042261,0.00066290,-0.00047764,0.00070507,0.00035863,-0.
 00138522,-0.00033826,-0.00054368,0.00019303,0.00044639,0.00018982,-0.0
 0006039,0.00001412,-0.00013274,0.00015158,-0.00010591,0.00129626,-0.00
 024077,-0.00012902,-0.00033946,0.00009020,0.00002092,0.00010875,0.0000
 4160,0.00012327,0.00007747,0.00001838,-0.00012818,-0.00011007,-0.00001
 615,0.00045701,0.00014298,-0.00008952,-0.00014446,-0.00005306,-0.00001
 851,0.00003052,0.00004264,0.00002480,-0.00006040,-0.00009348,0.0000097
 8,-0.00003256,-0.00004857,0.00003606,0.00006088,-0.00000125,-0.0000679
 3,0.00003282,0.00001550,-0.00000007,-0.00041409,0.00015397,-0.00036568
 ,0.00046518,0.00014604,0.00024891,0.00004714,0.00003906,-0.00006270,-0
 .00003008,-0.00009701,0.00000670,-0.00003538,-0.00038703,0.00014623,-0
 .00085512,0.00064397,-0.00018501,-0.00015074,-0.00021771,-0.00009078,0
 .00002606,0.00038006,0.00008723,-0.00010092,-0.00018719,-0.00031019,-0
 .00016348,-0.00026973,-0.00006019,0.00121017,0.00177064,-0.00065477,0.
 00015742,-0.00003915,-0.00004657,-0.00026370,-0.00011672,0.00010688,0.
 00055905,0.00010857,0.00020598,0.00176257,0.00062743,0.00065236,-0.427
 04130,-0.23232045,0.14751547,0.49753033,0.,0.,0.,0.,0.,0.,0.00029216,0
 .00062158,-0.00008017,-0.00000103,-0.00004276,-0.00012626,0.,0.,0.,0.0
 0015088,-0.00002886,-0.00002556,-0.00009002,0.00000159,0.00004827,0.,0
 .,0.,-0.00008137,-0.00007338,0.00003210,0.00010050,-0.00006275,0.00007
 284,-0.00424197,-0.00478448,-0.00232907,0.00048457,0.00091650,-0.00038
 459,-0.00163094,-0.00072380,0.00317018,0.00021686,-0.00084884,-0.00220
 091,0.00083862,0.00054645,0.00055020,0.00015092,-0.00003971,-0.0002174
 6,0.00001420,0.00010455,0.00014278,0.00014788,0.00021350,0.00084389,0.
 00040180,-0.00027932,-0.00005415,-0.00006065,0.00019681,0.00009892,-0.
 00000469,-0.00031732,-0.00049723,-0.00002272,-0.00011110,-0.00012508,0
 .00031613,0.00015021,-0.00042312,-0.00009219,-0.00121416,0.00065950,-0
 .00006854,0.00033671,0.00002037,-0.00003543,-0.00002144,-0.00004972,-0
 .00032566,-0.00377356,0.01137024,0.00029159,0.00039585,-0.00121563,-0.
 05803882,-0.01630574,-0.01372002,-0.00014220,-0.00268176,0.00040534,0.
 00008086,0.00062833,0.00008002,0.00045112,-0.00224141,-0.00297139,0.00
 052049,0.00017005,0.00031308,0.00055315,0.00238734,-0.00088205,0.00089
 063,0.00143291,0.00028137,0.00025770,0.00060213,-0.00110687,-0.0002822
 9,-0.00025594,0.00009835,0.00026569,0.00012232,-0.00008611,0.00000797,
 -0.00006657,0.00009125,0.00004874,0.00074458,-0.00011375,-0.00006154,-
 0.00014501,0.00005209,0.00003118,0.00005616,0.00003353,0.00006113,0.00
 005025,0.00001770,-0.00008041,-0.00006992,-0.00001059,0.00027387,0.000
 13597,-0.00006096,-0.00008302,-0.00004554,-0.00000803,0.00000519,0.000
 01394,0.00001081,-0.00002579,-0.00003934,0.00001113,-0.00002396,-0.000
 03030,0.00002287,0.00003561,0.00000110,-0.00003910,0.00001982,0.000014
 24,-0.00000886,-0.00007377,0.00009395,-0.00013941,0.00010848,0.0000119
 1,0.00005349,-0.00001052,-0.00000416,-0.00004148,-0.00003612,-0.000060
 68,-0.00000210,-0.00000425,-0.00011818,0.00006373,-0.00027723,0.000321
 71,-0.00015045,-0.00006172,0.00003271,-0.00000305,0.00013663,0.0001573
 9,-0.00003107,-0.00009985,-0.00004257,-0.00027075,-0.00007581,-0.00013
 970,-0.00004388,0.00043825,0.00103236,-0.00043205,0.00010529,-0.000042
 61,-0.00000296,-0.00013846,-0.00010249,0.00010495,0.00047905,0.0000571
 0,0.00015971,0.00004929,-0.00027774,-0.00154936,-0.23433430,-0.2513628
 9,0.10321299,0.31716526,0.26102433,0.,0.,0.,0.,0.,0.,0.00010924,0.0001
 3299,-0.00006032,-0.00014747,-0.00038481,-0.00004919,0.,0.,0.,-0.00047
 186,0.00016720,0.00016710,0.00045994,0.00011222,-0.00014045,0.,0.,0.,-
 0.00001405,0.00008177,0.00023665,-0.00039100,0.00023562,-0.00015124,0.
 00513926,0.00166380,0.01068349,-0.00048231,-0.00099471,-0.00113075,0.0
 0078635,0.00100370,-0.00066884,-0.00074173,-0.00131828,-0.00017029,-0.
 00199022,0.00069363,-0.00088734,0.00039558,-0.00019042,0.00128529,-0.0
 0009194,-0.00000225,-0.00013789,0.00052699,0.00049320,-0.00190295,-0.0
 0117622,0.00022495,0.00029105,0.00014613,-0.00008433,-0.00014449,-0.00
 026678,0.00034990,0.00108808,0.00001073,0.00003349,0.00003738,0.000540
 69,-0.00059799,-0.00103430,-0.00021468,0.00053786,-0.00125827,0.000120
 11,-0.00123031,0.00031544,0.00001368,0.00000899,0.00003418,0.00349027,
 0.00237022,0.00175394,0.00259015,0.00124174,-0.00162798,-0.02351283,-0
 .01659853,0.02002361,-0.00059923,0.00248153,-0.00152915,0.00005798,-0.
 00020184,0.00004364,-0.00273058,-0.00286257,-0.00268237,-0.00091380,-0
 .00032513,-0.00041656,-0.00148097,-0.00200935,-0.00125373,-0.00084800,
 -0.00081670,-0.00037126,-0.00044415,-0.00028365,0.00081759,0.00054904,
 0.00038155,0.00018924,0.00018725,-0.00001044,-0.00074794,0.00001255,-0
 .00004154,0.00008114,-0.00002826,0.00035718,-0.00041609,-0.00004610,-0
 .00002115,0.00007884,0.00004296,0.00013583,0.00013536,0.00003912,0.000
 02526,-0.00012667,-0.00000828,-0.00004102,0.00001694,-0.00030167,0.000
 10003,0.00028221,0.00006567,0.00000249,-0.00001064,0.00006304,-0.00004
 586,-0.00005049,0.00006807,0.00016212,-0.00004149,0.00002405,0.0000468
 1,0.00001919,-0.00008703,-0.00000579,0.00002951,-0.00001472,-0.0000577
 9,0.00002389,-0.00025395,0.00004525,0.00013782,-0.00005195,-0.00021515
 ,-0.00017982,-0.00001531,-0.00016161,0.00002794,0.00013590,0.00014624,
 0.00000035,0.00000581,0.00012633,0.00001105,0.00045661,-0.00094026,-0.
 00002491,-0.00002568,0.00038359,0.00009262,0.00018150,0.00020763,-0.00
 019668,-0.00008528,0.00033609,-0.00038505,0.00007198,0.00006183,0.0000
 1197,-0.00177236,-0.00283412,0.00021654,-0.00025504,0.00005536,0.00007
 398,0.00024884,0.00001130,0.00016500,0.00021458,-0.00006467,0.00007230
 ,-0.00119220,-0.00178953,-0.00258448,0.15279241,0.10343460,-0.18187480
 ,-0.19195418,-0.12817993,0.21107353,0.,0.,0.,0.,0.,0.,0.00010410,0.000
 22914,-0.00013624,-0.00003785,-0.00011573,-0.00007246,0.,0.,0.,0.00044
 178,0.00006264,-0.00011858,0.00007733,-0.00000118,0.00002510,0.,0.,0.,
 -0.00006069,0.00000269,0.00003309,-0.00066859,0.00051408,-0.00034355,-
 0.02959325,-0.01030363,-0.02700462,0.00096566,-0.00043623,-0.00115635,
 -0.00030692,0.00025227,0.00079950,0.00024062,0.00001378,-0.00031485,-0
 .00414897,0.00160329,-0.00539870,-0.00057556,0.00015740,0.00290096,0.0
 0015591,-0.00013364,-0.00083633,0.00108626,-0.00044796,0.00156420,0.00
 003309,0.00094716,-0.00053748,0.00019315,-0.00037659,0.00050336,-0.000
 31931,-0.00032980,0.00042957,-0.00010243,-0.00005038,-0.00010056,0.002
 11609,-0.00111146,-0.00063567,0.00072694,-0.00060549,-0.00006173,-0.00
 047679,0.00014506,0.00025284,-0.00002715,-0.00017255,0.00003854,-0.000
 42129,-0.00489899,0.00051067,-0.00127042,-0.00050250,-0.00126656,0.014
 34127,-0.00188912,-0.03624494,-0.00008106,-0.00074823,0.00039897,-0.00
 005981,-0.00005118,-0.00003819,0.00069325,-0.00012324,-0.00088190,0.00
 039199,0.00007249,0.00018709,-0.00035563,0.00118358,-0.00052946,0.0003
 1775,0.00033686,0.00007762,0.00020658,0.00022519,-0.00097787,-0.001022
 60,-0.00124904,0.00042026,0.00000514,0.00005638,0.00064266,0.00002206,
 0.00000984,-0.00009247,-0.00022855,0.00026777,0.00012558,-0.00002426,-
 0.00023045,-0.00013582,-0.00000713,-0.00001664,-0.00005994,0.00011273,
 0.00003622,0.00014686,-0.00000585,-0.00004875,0.00002281,0.00069307,-0
 .00036180,-0.00043217,-0.00015034,0.00000943,-0.00003286,0.00006722,0.
 00011822,0.00007485,-0.00019306,-0.00031631,0.00005354,-0.00000710,-0.
 00007618,0.00001782,0.00010558,-0.00000615,-0.00013193,0.00003515,-0.0
 0000931,0.00002356,-0.00133901,0.00061288,-0.00049056,0.00062208,-0.00
 001405,0.00004289,0.00004408,0.00008951,-0.00008011,0.00032902,-0.0000
 6493,-0.00000798,0.00003876,-0.00007840,0.00001543,-0.00117521,-0.0000
 1375,0.00020075,-0.00003923,0.00004296,-0.00005454,-0.00059863,-0.0017
 7093,0.00138671,0.00069267,-0.00031035,0.00031829,-0.00063592,-0.00063
 184,-0.00005564,-0.00261517,0.00055836,-0.00116115,0.00057816,-0.00008
 637,-0.00033217,-0.00040336,-0.00019604,-0.00009070,0.00023763,0.00032
 167,0.00016963,0.00073548,0.00019857,-0.00004037,-0.12439957,-0.025751
 88,0.09262487,-0.01039409,-0.02560026,0.06344630,0.15623189,0.,0.,0.,0
 .,0.,0.,0.00024829,0.00028027,-0.00022283,-0.00011577,-0.00038346,-0.0
 0012078,0.,0.,0.,0.00003001,-0.00006637,0.00007105,0.00000546,0.000075
 05,0.00000513,0.,0.,0.,-0.00006110,-0.00010736,0.00002300,0.00002423,-
 0.00007944,0.00002780,-0.00894250,-0.01209489,-0.00972763,-0.00147458,
 -0.00114689,-0.00338683,0.00049860,0.00095218,0.00018186,-0.00005041,-
 0.00006779,-0.00016617,0.00175251,0.00119081,0.00014402,0.00028662,0.0
 0022959,-0.00047061,-0.00000142,0.00011967,0.00011705,-0.00014581,0.00
 122328,0.00140672,0.00036514,-0.00133471,0.00065418,-0.00004861,0.0007
 0850,-0.00044113,-0.00074209,-0.00012944,0.00140466,-0.00005252,-0.000
 10522,-0.00013035,-0.00010725,0.00023565,0.00081019,0.00000876,-0.0006
 2130,0.00036527,0.00010021,0.00029968,0.00006796,-0.00014893,-0.000040
 01,-0.00018988,-0.00414028,0.00033296,0.00095844,-0.00075099,-0.000498
 58,0.00014123,-0.00074623,0.01463176,-0.03074473,0.00005223,-0.0002912
 0,-0.00124136,-0.00002697,-0.00007894,0.00002753,0.00065100,0.00004444
 ,-0.00083377,0.00001753,-0.00002117,0.00003747,-0.00019710,0.00045607,
 -0.00045747,-0.00005935,0.00055215,-0.00002347,0.00014452,0.00013418,-
 0.00071851,-0.00131841,-0.00059253,0.00033113,0.00012457,0.00024465,0.
 00057902,0.00003601,-0.00005467,0.00001096,0.00012434,0.00003001,0.000
 47709,0.00003268,0.00000082,-0.00004127,-0.00002320,-0.00003201,-0.000
 07169,-0.00005191,0.00000808,0.00006254,-0.00008256,-0.00001489,-0.000
 01222,0.00074386,-0.00000467,-0.00051775,-0.00015765,-0.00010478,-0.00
 002020,-0.00010771,0.00000572,0.00004829,-0.00017506,-0.00021067,0.000
 08260,-0.00004654,-0.00006493,0.00003375,0.00008724,-0.00000895,-0.000
 12313,0.00004091,0.00002835,-0.00006816,0.00066831,-0.00024905,-0.0004
 2045,0.00056246,0.00031049,0.00080987,-0.00010387,-0.00002499,-0.00021
 158,-0.00046722,-0.00029842,0.00008721,-0.00001177,-0.00096895,0.00012
 074,-0.00060269,-0.00028919,-0.00084785,-0.00002598,-0.00062313,-0.000
 11214,-0.00107728,-0.00144979,0.00144130,0.00006728,-0.00085634,0.0003
 4869,-0.00081239,-0.00065701,-0.00011410,-0.00082522,-0.00179338,-0.00
 104433,-0.00020637,-0.00000924,0.00011954,-0.00051956,0.00027701,-0.00
 030034,-0.00004511,-0.00003309,-0.00022356,0.00038965,0.00040675,0.000
 55377,-0.02537299,-0.09809875,0.04493359,-0.02803023,0.01346884,0.0439
 9679,0.07081492,0.08714332,0.,0.,0.,0.,0.,0.,0.00010996,-0.00009870,-0
 .00021741,-0.00036569,-0.00094737,-0.00006221,0.,0.,0.,-0.00129359,0.0
 0151768,0.00028971,0.00164776,0.00041619,-0.00041140,0.,0.,0.,-0.00031
 568,0.00050680,0.00109874,-0.00071134,0.00057492,-0.00016087,-0.022904
 12,-0.01148933,-0.03908400,-0.00286029,-0.00404001,-0.00320147,0.00266
 211,0.00206110,-0.00453989,-0.00090127,-0.00047394,0.00165694,-0.00883
 891,0.00162285,-0.00392031,0.00120137,-0.00125629,0.00392769,-0.000286
 05,0.00004602,0.00003792,0.00248301,0.00345118,-0.01254238,-0.00547506
 ,0.00119240,0.00077700,0.00075781,-0.00062466,-0.00033057,-0.00077111,
 0.00101367,0.00311302,-0.00001172,0.00018664,0.00016760,0.00161374,-0.
 00156642,-0.00532883,-0.00089395,0.00144419,-0.00075363,0.00061428,-0.
 00583282,0.00093417,-0.00003031,0.00008821,-0.00007956,-0.00512070,-0.
 00556781,0.01276067,-0.00057123,0.00214566,0.00121545,-0.01774505,-0.0
 1925843,-0.10144476,0.00093495,-0.00004162,-0.00292188,-0.00030257,0.0
 0003267,-0.00012724,-0.00052422,-0.00001200,0.00098347,-0.00047730,-0.
 00023147,0.00014051,0.00053421,-0.00105452,0.00113810,-0.00055405,0.00
 092877,-0.00075877,-0.00028235,-0.00005215,-0.00378921,0.00111269,0.00
 071419,0.00074649,0.00069521,0.00045266,-0.00183596,-0.00004206,-0.000
 26948,0.00030865,0.00033314,0.00162524,-0.00085230,-0.00016314,-0.0002
 2557,0.00023058,0.00011299,0.00036229,0.00033329,0.00015791,0.00009989
 ,-0.00026386,-0.00012171,-0.00016106,0.00000762,-0.00036974,0.00036467
 ,0.00052833,0.00005462,-0.00005101,-0.00004581,0.00015669,-0.00007945,
 -0.00008240,0.00010468,0.00029096,-0.00006447,0.00004619,0.00007952,0.
 00008733,-0.00019358,-0.00002378,-0.00003502,-0.00000730,-0.00017302,0
 .00004263,-0.00077749,0.00026125,-0.00004349,0.00004529,-0.00036572,0.
 00040820,-0.00008700,-0.00050807,-0.00005769,0.00032147,0.00027640,0.0
 0005194,0.00005114,-0.00000112,0.00005702,0.00059953,-0.00145281,-0.00
 139680,-0.00013847,0.00118145,0.00022164,0.00083308,0.00085736,0.00111
 438,0.00020973,0.00068368,-0.00106091,-0.00050476,-0.00052804,-0.00009
 979,-0.00230014,-0.00293743,-0.00264267,-0.00046382,0.00011866,-0.0000
 3733,0.00040998,-0.00013886,0.00050441,0.00084878,0.00008263,0.0004521
 1,0.00069437,-0.00115801,-0.00322875,0.08395151,0.04550308,-0.40289451
 ,0.05914937,0.03566635,-0.04671001,-0.08669838,-0.04678370,0.60785083\
 \0.,0.,0.,0.,0.,0.,0.00000007,-0.00000044,-0.00000041,0.00000003,0.000
 00017,0.00000003,0.,0.,0.,0.00000064,0.00000047,-0.00000024,-0.0000002
 1,-0.00000002,0.00000006,0.,0.,0.,0.00000036,-0.00000015,-0.00000022,-
 0.00000010,0.00000007,-0.00000004,-0.00000017,-0.00000007,-0.00000010,
 -0.00000021,0.00000030,0.00000093,0.00000036,0.00000044,-0.00000064,-0
 .00000014,0.00000002,0.00000042,0.00000030,-0.00000006,-0.00000006,-0.
 00000015,-0.00000006,-0.00000020,-0.00000007,0.00000007,0.00000033,-0.
 00000019,0.00000016,0.00000020,0.00000003,-0.00000062,0.00000007,-0.00
 000006,0.00000011,-0.00000003,-0.00000004,-0.00000042,-0.00000054,0.00
 000001,-0.00000001,0.00000006,-0.00000022,0.00000010,-0.00000017,0.000
 00002,-0.00000003,0.00000003,-0.00000067,-0.00000022,0.,0.00000027,-0.
 00000003,0.,0.00000017,0.00000034,-0.00000017,-0.00000011,0.00000004,-
 0.00000013,-0.00000047,-0.00000043,-0.00000028,-0.00000017,-0.00000020
 ,0.00000002,0.00000009,-0.00000008,0.00000005,-0.00000007,-0.00000004,
 0.00000006,0.00000023,0.00000003,-0.00000008,-0.00000002,0.00000006,0.
 00000011,-0.00000006,-0.00000004,0.00000001,0.00000006,0.,0.00000010,-
 0.00000052,-0.00000038,-0.00000027,0.00000026,0.00000032,-0.00000029,0
 .00000051,-0.00000034,0.,-0.00000027,-0.00000044,0.00000008,-0.0000001
 2,0.00000016,0.00000002,-0.00000004,0.00000001,0.00000006,-0.00000028,
 0.00000030,0.00000004,0.00000002,0.00000006,0.00000002,0.00000039,-0.0
 0000032,0.00000023,-0.00000007,0.00000038,0.00000050,-0.00000011,0.000
 00019,-0.00000013,0.,0.00000009,-0.00000003,0.00000006,0.00000006,-0.0
 0000001,0.00000008,-0.00000039,-0.00000024,-0.00000013,0.00000001,-0.0
 0000020,0.00000036,-0.00000023,-0.00000039,-0.00000047,0.00000042,0.00
 000041,-0.00000005,0.,0.00000034,-0.00000011,0.00000028,0.00000009,0.0
 0000016,-0.00000011,0.00000011,0.00000002,0.00000002,0.,0.00000015,-0.
 00000027,-0.00000045,0.00000038,0.00000026,0.00000022,0.,-0.00000010,-
 0.00000020,0.,0.,-0.00000011,-0.00000017,-0.00000001,0.00000005,-0.000
 00002,0.00000004,0.00000003,-0.00000001,0.00000004,0.00000001,-0.00000
 002,-0.00000002,0.00000012,0.,-0.00000002,-0.00000003,0.00000058,0.000
 00069,0.00000002,-0.00000017,-0.00000023,0.00000008,-0.00000002,-0.000
 00012,0.00000032\\\@


 Boundary, n.  In political geography, an imaginary
 line between two nations, separating the imaginary
 rights of one from the imaginary rights of another.
                               -- Ambrose Bierce
 Job cpu time:       2 days 18 hours 46 minutes 50.8 seconds.
 Elapsed time:       0 days  1 hours  4 minutes 24.9 seconds.
 File lengths (MBytes):  RWF=   4356 Int=      0 D2E=      0 Chk=     40 Scr=      1
 Normal termination of Gaussian 16 at Mon Nov 18 15:58:02 2019.
