 Entering Gaussian System, Link 0=g16
 Input=Zn_PC_TEABr_TS3.com
 Output=Zn_PC_TEABr_TS3.log
 Initial command:
 /apps/commercial/G16/g16.linda/l1.exe "/scratch/x1711a05/Gau-18499.inp" -scrdir="/scratch/x1711a05/"
 Default linda workers: node7880
 Entering Link 1 = /apps/commercial/G16/g16.linda/l1.exe PID=     18500.
  
 Copyright (c) 1988,1990,1992,1993,1995,1998,2003,2009,2016,
            Gaussian, Inc.  All Rights Reserved.
  
 This is part of the Gaussian(R) 16 program.  It is based on
 the Gaussian(R) 09 system (copyright 2009, Gaussian, Inc.),
 the Gaussian(R) 03 system (copyright 2003, Gaussian, Inc.),
 the Gaussian(R) 98 system (copyright 1998, Gaussian, Inc.),
 the Gaussian(R) 94 system (copyright 1995, Gaussian, Inc.),
 the Gaussian 92(TM) system (copyright 1992, Gaussian, Inc.),
 the Gaussian 90(TM) system (copyright 1990, Gaussian, Inc.),
 the Gaussian 88(TM) system (copyright 1988, Gaussian, Inc.),
 the Gaussian 86(TM) system (copyright 1986, Carnegie Mellon
 University), and the Gaussian 82(TM) system (copyright 1983,
 Carnegie Mellon University). Gaussian is a federally registered
 trademark of Gaussian, Inc.
  
 This software contains proprietary and confidential information,
 including trade secrets, belonging to Gaussian, Inc.
  
 This software is provided under written license and may be
 used, copied, transmitted, or stored only in accord with that
 written license.
  
 The following legend is applicable only to US Government
 contracts under FAR:
  
                    RESTRICTED RIGHTS LEGEND
  
 Use, reproduction and disclosure by the US Government is
 subject to restrictions as set forth in subparagraphs (a)
 and (c) of the Commercial Computer Software - Restricted
 Rights clause in FAR 52.227-19.
  
 Gaussian, Inc.
 340 Quinnipiac St., Bldg. 40, Wallingford CT 06492
  
  
 ---------------------------------------------------------------
 Warning -- This program may not be used in any manner that
 competes with the business of Gaussian, Inc. or will provide
 assistance to any competitor of Gaussian, Inc.  The licensee
 of this program is prohibited from giving any competitor of
 Gaussian, Inc. access to this program.  By using this program,
 the user acknowledges that Gaussian, Inc. is engaged in the
 business of creating and licensing software in the field of
 computational chemistry and represents and warrants to the
 licensee that it is not a competitor of Gaussian, Inc. and that
 it will not use this program in any manner prohibited above.
 ---------------------------------------------------------------
  

 Cite this work as:
 Gaussian 16, Revision A.03,
 M. J. Frisch, G. W. Trucks, H. B. Schlegel, G. E. Scuseria, 
 M. A. Robb, J. R. Cheeseman, G. Scalmani, V. Barone, 
 G. A. Petersson, H. Nakatsuji, X. Li, M. Caricato, A. V. Marenich, 
 J. Bloino, B. G. Janesko, R. Gomperts, B. Mennucci, H. P. Hratchian, 
 J. V. Ortiz, A. F. Izmaylov, J. L. Sonnenberg, D. Williams-Young, 
 F. Ding, F. Lipparini, F. Egidi, J. Goings, B. Peng, A. Petrone, 
 T. Henderson, D. Ranasinghe, V. G. Zakrzewski, J. Gao, N. Rega, 
 G. Zheng, W. Liang, M. Hada, M. Ehara, K. Toyota, R. Fukuda, 
 J. Hasegawa, M. Ishida, T. Nakajima, Y. Honda, O. Kitao, H. Nakai, 
 T. Vreven, K. Throssell, J. A. Montgomery, Jr., J. E. Peralta, 
 F. Ogliaro, M. J. Bearpark, J. J. Heyd, E. N. Brothers, K. N. Kudin, 
 V. N. Staroverov, T. A. Keith, R. Kobayashi, J. Normand, 
 K. Raghavachari, A. P. Rendell, J. C. Burant, S. S. Iyengar, 
 J. Tomasi, M. Cossi, J. M. Millam, M. Klene, C. Adamo, R. Cammi, 
 J. W. Ochterski, R. L. Martin, K. Morokuma, O. Farkas, 
 J. B. Foresman, and D. J. Fox, Gaussian, Inc., Wallingford CT, 2016.
 
 ******************************************
 Gaussian 16:  ES64L-G16RevA.03 25-Dec-2016
                18-Dec-2019 
 ******************************************
 %nprocshared=64
 Will use up to   64 processors via shared memory.
 %mem=64GB
 %chk=Zn_PC_TEABr_TS3.chk
 SetLPE:    new flags="-opt 'Tsnet.Node.lindarsharg: ssh'  -nodelist 'node7880' -env GAUSS_MDEF=8589934592 -env GAUSS_EXEDIR="/apps/commercial/G16/g16.linda""
 Will use up to    1 processors via Linda.
 ----------------------------------------------------------------------
 # opt=(calcall,tight,qst3,cartesian) freq cam-b3lyp/gen nosymm scf=(qc
 ,maxcycle=1024,vshift=100) pseudo=read
 ----------------------------------------------------------------------
 1/5=1,7=10,10=4,18=20,26=3,27=203,38=1/1,3;
 2/9=110,12=2,15=1,17=6,18=5,40=1/2;
 3/5=7,11=2,16=1,17=8,25=1,30=1,71=2,74=-40,140=1/1,2,3;
 4//1;
 5/5=2,7=1024,8=3,10=100,38=5/8;
 8/6=4,10=90,11=11/1;
 11/6=1,8=1,9=11,15=111,16=1,31=1/1,2,10;
 10/6=1,31=1/2;
 6/7=2,8=2,9=2,10=2,18=1,28=1/1;
 7/10=1,25=1,30=1/1,2,3,16;
 1/5=1,7=10,10=4,18=20,26=3,27=203/3(3);
 2/9=110,15=1/2;
 7/8=1,9=1,25=1,30=1,44=-1/16;
 99//99;
 2/9=110,15=1/2;
 3/5=7,6=1,11=2,16=1,17=8,25=1,30=1,71=2,74=-40,82=7,140=1/1,2,3;
 4/5=5,16=3,69=1/1;
 5/5=2,7=1024,8=3,10=100,38=5/8;
 8/6=4,10=90,11=11/1;
 11/6=1,8=1,9=11,15=111,16=1,31=1/1,2,10;
 10/6=1,31=1/2;
 7/10=1,25=1,30=1/1,2,3,16;
 1/5=1,7=10,10=4,18=20,26=3,27=203/3(-8);
 2/9=110,15=1/2;
 6/7=2,8=2,9=2,10=2,18=1,19=2,28=1/1;
 7/8=1,9=1,25=1,30=1,44=-1/16;
 99//99;
 --------------------------------
 Zn_PO_TEABr_CO_bind_opt_freq3_re
 --------------------------------
 Symbolic Z-matrix:
 Charge =  0 Multiplicity = 1
 Li                   -1   -0.65617  -5.03839  -3.45744 
 N                    -1   -0.28279  -3.67558  -2.19468 
 C                    0    -0.88055  -4.0996   -1.04385 
 Cl                   0    -1.59514  -5.6833   -1.02981 
 N                    -1    2.32823   2.59905  -2.41943 
 C                    0     3.25585   1.61855  -2.30673 
 Cl                   0     4.89361   1.82281  -2.83467 
 N                    -1   -3.32748   2.07508   1.06573 
 C                    0    -3.49359   2.08111  -0.27674 
 Cl                   0    -4.80831   2.89646  -1.05079 
 Zn                   0     0.11018  -0.07883  -0.03274 
 N                    0    -0.14701  -2.06368  -0.64985 
 C                    0    -0.80682  -3.12458  -0.09248 
 Cl                   0    -1.38944  -3.12502   1.51166 
 N                    0    -1.6631    0.89123   0.09704 
 C                    0    -2.49224   1.36336  -0.87943 
 Cl                   0    -2.2388    1.01763  -2.55409 
 N                    0     1.39553   0.78048  -1.43672 
 C                    0     2.705     0.51299  -1.7053 
 Cl                   0     3.45479  -0.98757  -1.2961 
 C                    0     0.13917  -2.44073  -1.89893 
 H                    0     0.66076  -1.79968  -2.59474 
 C                    0    -2.23115   1.35334   1.2422 
 H                    0    -1.81848   1.1088    2.21205 
 C                    0     1.23659   2.04519  -1.89663 
 H                    0     0.28005   2.54827  -1.84557 
 C                    0     1.55355   0.69245   5.06862 
 C                    0     0.17896   1.14698   5.55588 
 O                    0     1.68981   0.90017   3.65133 
 C                    0     1.91131  -0.72819   5.47145 
 H                    0    -0.12539   2.06517   5.05645 
 H                    0    -0.58195   0.38599   5.42302 
 H                    0     2.91425  -0.97573   5.11569 
 H                    0     1.19766  -1.43344   5.04492 
 H                    0     1.89689  -0.81801   6.5599 
 H                    0     2.29552   1.38139   5.48265 
 N                    0     3.12546   3.95582   1.46049 
 C                    0     2.84603   4.03398   2.95341 
 C                    0     4.04157   4.17336   3.88571 
 H                    0     2.27591   3.1349    3.19281 
 H                    0     2.19669   4.90103   3.08883 
 H                    0     3.65252   4.12639   4.90619 
 H                    0     4.7721    3.37343   3.77902 
 H                    0     4.55103   5.13281   3.78095 
 C                    0     4.25959   4.88619   1.09772 
 C                    0     4.57797   5.00278  -0.38446 
 H                    0     5.13705   4.53446   1.63726 
 H                    0     3.98663   5.86141   1.50958 
 H                    0     5.3988    5.71764  -0.48367 
 H                    0     4.90982   4.06144  -0.82417 
 H                    0     3.74278   5.37616  -0.97705 
 C                    0     1.87331   4.41681   0.71637 
 C                    0     0.56136   3.82556   1.20544 
 H                    0     2.03307   4.15275  -0.3292 
 H                    0     1.86093   5.50635   0.80655 
 H                    0    -0.21523   4.1097    0.49176 
 H                    0     0.57502   2.73666   1.24631 
 H                    0     0.2572    4.20944   2.18041 
 C                    0     3.41228   2.5288    1.01291 
 C                    0     4.56949   1.81514   1.68407 
 H                    0     3.56237   2.58701  -0.0622 
 H                    0     2.50543   1.95185   1.1928 
 H                    0     4.70484   0.87834   1.13812 
 H                    0     5.51838   2.35612   1.63921 
 H                    0     4.33959   1.54828   2.71634 
 Br                   0     0.24747   1.57056   7.47 
 C                    0     0.83834   0.21815   2.80047 
 O                    0    -0.10368  -0.42669   3.23632 
 O                    0     1.18211   0.40451   1.58189 
 
 Add virtual bond connecting atoms O69        and H62        Dist= 3.92D+00.
 ---------------------
 Zn_PC_TEABr_opt_freq3
 ---------------------
 Symbolic Z-matrix:
 Charge =  0 Multiplicity = 1
 Li                   -1   -0.65617  -5.03839  -3.45744 
 N                    -1   -0.28279  -3.67558  -2.19468 
 C                    0    -1.18148  -3.93365  -1.20096 
 Cl                   0    -2.1409   -5.37812  -1.31737 
 N                    -1    2.32823   2.59905  -2.41943 
 C                    0     3.29579   1.66858  -2.22643 
 Cl                   0     4.91025   1.86719  -2.8132 
 N                    -1   -3.32748   2.07508   1.06573 
 C                    0    -3.65986   1.65508  -0.1761 
 Cl                   0    -5.20432   1.97064  -0.88753 
 Zn                   0     0.12725  -0.06281  -0.0408 
 N                    0    -0.22191  -2.02229  -0.68998 
 C                    0    -1.15537  -2.93127  -0.2772 
 Cl                   0    -2.07223  -2.74979   1.15371 
 N                    0    -1.58344   0.96182   0.16302 
 C                    0    -2.61246   0.9771   -0.73909 
 Cl                   0    -2.48213   0.24334  -2.30023 
 N                    0     1.46633   0.8346   -1.29542 
 C                    0     2.78705   0.59439  -1.54003 
 Cl                   0     3.57124  -0.86059  -1.04842 
 C                    0     0.26507  -2.50947  -1.83447 
 H                    0     1.02699  -2.00119  -2.40749 
 C                    0    -2.08763   1.64258   1.2308 
 H                    0    -1.50255   1.82439   2.12534 
 C                    0     1.2566    2.05086  -1.85605 
 H                    0     0.28216   2.5213   -1.83342 
 C                    0     1.10248  -0.42014   5.1214 
 C                    0    -0.38283  -0.44711   4.71825 
 O                    0     1.7802   -0.42466   3.83697 
 C                    0     1.57461  -1.60016   5.9379 
 H                    0    -0.90046   0.46105   5.02372 
 H                    0    -0.90644  -1.34849   5.04338 
 H                    0     2.65303  -1.54996   6.10084 
 H                    0     1.33864  -2.5442    5.43892 
 H                    0     1.08205  -1.5909    6.91421 
 H                    0     1.34395   0.54133   5.57591 
 N                    0     2.60262   4.74232   1.16254 
 C                    0     2.18696   5.41494   2.46945 
 C                    0     3.28379   5.74007   3.47106 
 H                    0     1.45772   4.74611   2.93613 
 H                    0     1.68738   6.34033   2.17425 
 H                    0     2.77837   6.08851   4.37501 
 H                    0     3.87566   4.87152   3.75569 
 H                    0     3.95324   6.53687   3.13977 
 C                    0     3.90815   5.3266    0.67866 
 C                    0     4.47876   4.72824  -0.59586 
 H                    0     4.62383   5.20491   1.48863 
 H                    0     3.72426   6.3981    0.56275 
 H                    0     5.36256   5.31241  -0.865 
 H                    0     4.803     3.69663  -0.45665 
 H                    0     3.79457   4.74821  -1.44438 
 C                    0     1.53142   5.05413   0.12438 
 C                    0     0.11021   4.67286   0.50461 
 H                    0     1.82389   4.53493  -0.78804 
 H                    0     1.60469   6.13062  -0.05054 
 H                    0    -0.53912   4.99992  -0.31172 
 H                    0    -0.03051   3.59844   0.61646 
 H                    0    -0.23999   5.15122   1.41913 
 C                    0     2.67703   3.22645   1.29961 
 C                    0     3.73352   2.67784   2.23873 
 H                    0     2.81213   2.84843   0.28674 
 H                    0     1.70531   2.91515   1.68257 
 H                    0     3.73837   1.59438   2.09545 
 H                    0     4.7441    3.04249   2.03733 
 H                    0     3.45859   2.85149   3.27932 
 Br                   0     0.48517   2.75044   4.09446 
 C                    0     0.89692  -0.34415   2.86868 
 O                    0    -0.34841  -0.45824   3.27882 
 O                    0     1.21548  -0.24688   1.68856 
 
 Add virtual bond connecting atoms Br66       and H40        Dist= 4.73D+00.
 Add virtual bond connecting atoms H54        and N5         Dist= 4.88D+00.
 Add virtual bond connecting atoms H57        and H26        Dist= 5.09D+00.
 ---------------
 Zn_PC_TEABr_TS3
 ---------------
 Symbolic Z-matrix:
 Charge =  0 Multiplicity = 1
 Li                   -1   -0.65617  -5.03839  -3.45744 
 N                    -1   -0.28279  -3.67558  -2.19468 
 C                    0    -0.88055  -4.0996   -1.04385 
 Cl                   0    -1.59514  -5.6833   -1.02981 
 N                    -1    2.32823   2.59905  -2.41943 
 C                    0     3.25585   1.61855  -2.30673 
 Cl                   0     4.89361   1.82281  -2.83467 
 N                    -1   -3.32748   2.07508   1.06573 
 C                    0    -3.49359   2.08111  -0.27674 
 Cl                   0    -4.80831   2.89646  -1.05079 
 Zn                   0     0.11018  -0.07883  -0.03274 
 N                    0    -0.14701  -2.06368  -0.64985 
 C                    0    -0.80682  -3.12458  -0.09248 
 Cl                   0    -1.38944  -3.12502   1.51166 
 N                    0    -1.6631    0.89123   0.09704 
 C                    0    -2.49224   1.36336  -0.87943 
 Cl                   0    -2.2388    1.01763  -2.55409 
 N                    0     1.39553   0.78048  -1.43672 
 C                    0     2.705     0.51299  -1.7053 
 Cl                   0     3.45479  -0.98757  -1.2961 
 C                    0     0.13917  -2.44073  -1.89893 
 H                    0     0.66076  -1.79968  -2.59474 
 C                    0    -2.23115   1.35334   1.2422 
 H                    0    -1.81848   1.1088    2.21205 
 C                    0     1.23659   2.04519  -1.89663 
 H                    0     0.28005   2.54827  -1.84557 
 C                    0     1.34523   0.25317   5.49347 
 C                    0    -0.29259   0.65121   5.4434 
 O                    0     1.70627   0.14922   3.89707 
 C                    0     1.78943  -1.12655   5.94903 
 H                    0    -0.79081   1.61675   5.51151 
 H                    0    -1.00118  -0.14389   5.64703 
 H                    0     2.80982  -1.32096   5.61029 
 H                    0     1.12703  -1.89082   5.54193 
 H                    0     1.76962  -1.1793    7.03982 
 H                    0     2.03706   1.00256   5.88887 
 N                    0     3.12546   3.95582   1.46049 
 C                    0     2.84603   4.03398   2.95341 
 C                    0     4.04157   4.17336   3.88571 
 H                    0     2.27591   3.1349    3.19281 
 H                    0     2.19669   4.90103   3.08883 
 H                    0     3.65252   4.12639   4.90619 
 H                    0     4.7721    3.37343   3.77902 
 H                    0     4.55103   5.13281   3.78095 
 C                    0     4.25959   4.88619   1.09772 
 C                    0     4.57797   5.00278  -0.38446 
 H                    0     5.13705   4.53446   1.63726 
 H                    0     3.98663   5.86141   1.50958 
 H                    0     5.3988    5.71764  -0.48367 
 H                    0     4.90982   4.06144  -0.82417 
 H                    0     3.74278   5.37616  -0.97705 
 C                    0     1.87331   4.41681   0.71637 
 C                    0     0.56136   3.82556   1.20544 
 H                    0     2.03307   4.15275  -0.3292 
 H                    0     1.86093   5.50635   0.80655 
 H                    0    -0.21523   4.1097    0.49176 
 H                    0     0.57502   2.73666   1.24631 
 H                    0     0.2572    4.20944   2.18041 
 C                    0     3.41228   2.5288    1.01291 
 C                    0     4.56949   1.81514   1.68407 
 H                    0     3.56237   2.58701  -0.0622 
 H                    0     2.50543   1.95185   1.1928 
 H                    0     4.70484   0.87834   1.13812 
 H                    0     5.51838   2.35612   1.63921 
 H                    0     4.33959   1.54828   2.71634 
 Br                   0    -0.03925   1.12782   7.8518 
 C                    0     0.61169   0.0939    3.0527 
 O                    0    -0.52594   0.06411   3.49778 
 O                    0     0.99016   0.11004   1.83026 
 

 GradGradGradGradGradGradGradGradGradGradGradGradGradGradGradGradGradGrad
 Berny optimization.
 Initialization pass.
                           ----------------------------
                           !    Initial Parameters    !
                           ! (Angstroms and Degrees)  !
 --------------------------                            --------------------------
 ! Name  Definition         TS        Reactant Product Derivative Info.         !
 --------------------------------------------------------------------------------
 ! X1    R(1,-1)           -0.6562   -0.6562   -0.6562 frozen, calculate D2E/DX2!
 ! Y1    R(1,-2)           -5.0384   -5.0384   -5.0384 frozen, calculate D2E/DX2!
 ! Z1    R(1,-3)           -3.4574   -3.4574   -3.4574 frozen, calculate D2E/DX2!
 ! X2    R(2,-1)           -0.2828   -0.2828   -0.2828 frozen, calculate D2E/DX2!
 ! Y2    R(2,-2)           -3.6756   -3.6756   -3.6756 frozen, calculate D2E/DX2!
 ! Z2    R(2,-3)           -2.1947   -2.1947   -2.1947 frozen, calculate D2E/DX2!
 ! X5    R(5,-1)            2.3282    2.3282    2.3282 frozen, calculate D2E/DX2!
 ! Y5    R(5,-2)            2.599     2.599     2.599  frozen, calculate D2E/DX2!
 ! Z5    R(5,-3)           -2.4194   -2.4194   -2.4194 frozen, calculate D2E/DX2!
 ! X8    R(8,-1)           -3.3275   -3.3275   -3.3275 frozen, calculate D2E/DX2!
 ! Y8    R(8,-2)            2.0751    2.0751    2.0751 frozen, calculate D2E/DX2!
 ! Z8    R(8,-3)            1.0657    1.0657    1.0657 frozen, calculate D2E/DX2!
 ! R1    R(2,3)             1.3644    1.3644    1.3645 calculate D2E/DX2 analyti!
 ! R2    R(2,21)            1.3381    1.3381    1.3378 calculate D2E/DX2 analyti!
 ! R3    R(3,4)             1.7375    1.7375    1.738  calculate D2E/DX2 analyti!
 ! R4    R(3,13)            1.3643    1.3643    1.3634 calculate D2E/DX2 analyti!
 ! R5    R(5,6)             1.3545    1.3545    1.3562 calculate D2E/DX2 analyti!
 ! R6    R(5,25)            1.3311    1.3311    1.329  calculate D2E/DX2 analyti!
 ! R7    R(5,54)            2.6211    2.6211    2.5814 calculate D2E/DX2 analyti!
 ! R8    R(6,7)             1.7328    1.7328    1.7292 calculate D2E/DX2 analyti!
 ! R9    R(6,19)            1.3738    1.3738    1.3725 calculate D2E/DX2 analyti!
 ! R10   R(8,9)             1.3527    1.3527    1.3524 calculate D2E/DX2 analyti!
 ! R11   R(8,23)            1.3244    1.3244    1.3235 calculate D2E/DX2 analyti!
 ! R12   R(9,10)            1.7299    1.7299    1.7295 calculate D2E/DX2 analyti!
 ! R13   R(9,16)            1.3715    1.3715    1.3688 calculate D2E/DX2 analyti!
 ! R14   R(11,12)           2.0944    2.0944    2.0935 calculate D2E/DX2 analyti!
 ! R15   R(11,15)           2.0254    2.0254    2.0045 calculate D2E/DX2 analyti!
 ! R16   R(11,18)           2.0885    2.0885    2.0427 calculate D2E/DX2 analyti!
 ! R17   R(11,69)           2.069     1.9974    2.0515 calculate D2E/DX2 analyti!
 ! R18   R(12,13)           1.368     1.368     1.3667 calculate D2E/DX2 analyti!
 ! R19   R(12,21)           1.3358    1.3358    1.3358 calculate D2E/DX2 analyti!
 ! R20   R(13,14)           1.7067    1.7067    1.7091 calculate D2E/DX2 analyti!
 ! R21   R(15,16)           1.3652    1.3652    1.3685 calculate D2E/DX2 analyti!
 ! R22   R(15,23)           1.3593    1.3593    1.363  calculate D2E/DX2 analyti!
 ! R23   R(16,17)           1.7286    1.7286    1.7299 calculate D2E/DX2 analyti!
 ! R24   R(18,19)           1.3632    1.3632    1.3645 calculate D2E/DX2 analyti!
 ! R25   R(18,25)           1.3551    1.3551    1.3556 calculate D2E/DX2 analyti!
 ! R26   R(19,20)           1.7266    1.7266    1.7244 calculate D2E/DX2 analyti!
 ! R27   R(21,22)           1.0803    1.0803    1.0804 calculate D2E/DX2 analyti!
 ! R28   R(23,24)           1.082     1.082     1.0842 calculate D2E/DX2 analyti!
 ! R29   R(25,26)           1.082     1.082     1.0823 calculate D2E/DX2 analyti!
 ! R30   R(26,57)           3.1116    3.1116    2.6944 calculate D2E/DX2 analyti!
 ! R31   R(27,28)           1.6862    1.5276    1.5393 calculate D2E/DX2 analyti!
 ! R32   R(27,29)           1.64      1.4389    1.4523 calculate D2E/DX2 analyti!
 ! R33   R(27,30)           1.5194    1.5194    1.5106 calculate D2E/DX2 analyti!
 ! R34   R(27,36)           1.0939    1.0939    1.0905 calculate D2E/DX2 analyti!
 ! R35   R(28,31)           1.0886    1.0886    1.089  calculate D2E/DX2 analyti!
 ! R36   R(28,32)           1.0843    1.0843    1.092  calculate D2E/DX2 analyti!
 ! R37   R(28,66)           2.4681    1.9616    3.3715 calculate D2E/DX2 analyti!
 ! R38   R(28,68)           2.0456    2.8172    1.4399 calculate D2E/DX2 analyti!
 ! R39   R(29,67)           1.3835    1.3835    1.3131 calculate D2E/DX2 analyti!
 ! R40   R(30,33)           1.0926    1.0926    1.0918 calculate D2E/DX2 analyti!
 ! R41   R(30,34)           1.0902    1.0902    1.0936 calculate D2E/DX2 analyti!
 ! R42   R(30,35)           1.0922    1.0922    1.0936 calculate D2E/DX2 analyti!
 ! R43   R(37,38)           1.5208    1.5208    1.5275 calculate D2E/DX2 analyti!
 ! R44   R(37,45)           1.5111    1.5111    1.5099 calculate D2E/DX2 analyti!
 ! R45   R(37,52)           1.5278    1.5278    1.524  calculate D2E/DX2 analyti!
 ! R46   R(37,59)           1.5228    1.5228    1.5239 calculate D2E/DX2 analyti!
 ! R47   R(38,39)           1.5225    1.5225    1.5205 calculate D2E/DX2 analyti!
 ! R48   R(38,40)           1.0912    1.0912    1.094  calculate D2E/DX2 analyti!
 ! R49   R(38,41)           1.0917    1.0917    1.0923 calculate D2E/DX2 analyti!
 ! R50   R(39,42)           1.0931    1.0931    1.0927 calculate D2E/DX2 analyti!
 ! R51   R(39,43)           1.0886    1.0886    1.0889 calculate D2E/DX2 analyti!
 ! R52   R(39,44)           1.0914    1.0914    1.0922 calculate D2E/DX2 analyti!
 ! R53   R(40,66)           5.5762    4.9856    2.504  calculate D2E/DX2 analyti!
 ! R54   R(45,46)           1.5205    1.5205    1.5192 calculate D2E/DX2 analyti!
 ! R55   R(45,47)           1.0885    1.0885    1.0877 calculate D2E/DX2 analyti!
 ! R56   R(45,48)           1.0932    1.0932    1.0933 calculate D2E/DX2 analyti!
 ! R57   R(46,49)           1.093     1.093     1.0931 calculate D2E/DX2 analyti!
 ! R58   R(46,50)           1.0907    1.0907    1.0903 calculate D2E/DX2 analyti!
 ! R59   R(46,51)           1.09      1.09      1.0902 calculate D2E/DX2 analyti!
 ! R60   R(52,53)           1.5199    1.5199    1.5198 calculate D2E/DX2 analyti!
 ! R61   R(52,54)           1.0902    1.0902    1.0898 calculate D2E/DX2 analyti!
 ! R62   R(52,55)           1.0933    1.0933    1.0931 calculate D2E/DX2 analyti!
 ! R63   R(53,56)           1.0923    1.0923    1.0932 calculate D2E/DX2 analyti!
 ! R64   R(53,57)           1.0898    1.0898    1.0894 calculate D2E/DX2 analyti!
 ! R65   R(53,58)           1.0911    1.0911    1.0899 calculate D2E/DX2 analyti!
 ! R66   R(59,60)           1.5162    1.5162    1.5163 calculate D2E/DX2 analyti!
 ! R67   R(59,61)           1.0871    1.0871    1.0895 calculate D2E/DX2 analyti!
 ! R68   R(59,62)           1.0898    1.0898    1.0899 calculate D2E/DX2 analyti!
 ! R69   R(60,63)           1.0927    1.0927    1.0929 calculate D2E/DX2 analyti!
 ! R70   R(60,64)           1.0932    1.0932    1.0931 calculate D2E/DX2 analyti!
 ! R71   R(60,65)           1.0907    1.0907    1.0902 calculate D2E/DX2 analyti!
 ! R72   R(62,69)           2.4687    2.0729    3.1997 calculate D2E/DX2 analyti!
 ! R73   R(67,68)           1.222     1.222     1.3161 calculate D2E/DX2 analyti!
 ! R74   R(67,69)           1.2798    1.2798    1.2262 calculate D2E/DX2 analyti!
 ! A1    A(1,2,3)         104.6099  104.6099  102.68   calculate D2E/DX2 analyti!
 ! A2    A(1,2,21)        150.8204  150.8204  152.4929 calculate D2E/DX2 analyti!
 ! A3    A(3,2,21)        103.7998  103.7998  103.7977 calculate D2E/DX2 analyti!
 ! A4    A(2,3,4)         118.0516  118.0516  118.1648 calculate D2E/DX2 analyti!
 ! A5    A(2,3,13)        110.0244  110.0244  109.9859 calculate D2E/DX2 analyti!
 ! A6    A(4,3,13)        131.9141  131.9141  131.8373 calculate D2E/DX2 analyti!
 ! A7    A(6,5,25)        103.1658  103.1658  103.4121 calculate D2E/DX2 analyti!
 ! A8    A(6,5,54)        116.0955  116.0955  124.3321 calculate D2E/DX2 analyti!
 ! A9    A(25,5,54)        80.8558   80.8558   83.3325 calculate D2E/DX2 analyti!
 ! A10   A(5,6,7)         122.4529  122.4529  122.6166 calculate D2E/DX2 analyti!
 ! A11   A(5,6,19)        110.1433  110.1433  110.1014 calculate D2E/DX2 analyti!
 ! A12   A(7,6,19)        127.3871  127.3871  127.2751 calculate D2E/DX2 analyti!
 ! A13   A(9,8,23)        103.669   103.669   104.0804 calculate D2E/DX2 analyti!
 ! A14   A(8,9,10)        122.6494  122.6494  122.7199 calculate D2E/DX2 analyti!
 ! A15   A(8,9,16)        110.1281  110.1281  110.0861 calculate D2E/DX2 analyti!
 ! A16   A(10,9,16)       127.2224  127.2224  127.1938 calculate D2E/DX2 analyti!
 ! A17   A(12,11,15)      111.4232  111.4232  111.5698 calculate D2E/DX2 analyti!
 ! A18   A(12,11,18)      105.5114  105.5114  109.2732 calculate D2E/DX2 analyti!
 ! A19   A(12,11,69)      113.8311  122.2356  105.4192 calculate D2E/DX2 analyti!
 ! A20   A(15,11,18)      112.6342  112.6342  113.4128 calculate D2E/DX2 analyti!
 ! A21   A(15,11,69)      105.7208  107.587   114.3842 calculate D2E/DX2 analyti!
 ! A22   A(18,11,69)      107.818    96.521   102.0892 calculate D2E/DX2 analyti!
 ! A23   A(11,12,13)      132.3845  132.3845  129.9962 calculate D2E/DX2 analyti!
 ! A24   A(11,12,21)      121.1121  121.1121  123.109  calculate D2E/DX2 analyti!
 ! A25   A(13,12,21)      105.3919  105.3919  105.3786 calculate D2E/DX2 analyti!
 ! A26   A(3,13,12)       107.2286  107.2286  107.3026 calculate D2E/DX2 analyti!
 ! A27   A(3,13,14)       129.5556  129.5556  129.4245 calculate D2E/DX2 analyti!
 ! A28   A(12,13,14)      123.2159  123.2159  123.2728 calculate D2E/DX2 analyti!
 ! A29   A(11,15,16)      130.6556  130.6556  125.478  calculate D2E/DX2 analyti!
 ! A30   A(11,15,23)      125.6402  125.6402  130.5912 calculate D2E/DX2 analyti!
 ! A31   A(16,15,23)      103.3676  103.3676  103.4553 calculate D2E/DX2 analyti!
 ! A32   A(9,16,15)       108.0639  108.0639  108.0448 calculate D2E/DX2 analyti!
 ! A33   A(9,16,17)       129.5986  129.5986  129.7109 calculate D2E/DX2 analyti!
 ! A34   A(15,16,17)      122.3235  122.3235  122.2412 calculate D2E/DX2 analyti!
 ! A35   A(11,18,19)      130.0078  130.0078  131.8578 calculate D2E/DX2 analyti!
 ! A36   A(11,18,25)      122.6821  122.6821  123.1458 calculate D2E/DX2 analyti!
 ! A37   A(19,18,25)      103.2346  103.2346  103.5071 calculate D2E/DX2 analyti!
 ! A38   A(6,19,18)       108.2699  108.2699  108.098  calculate D2E/DX2 analyti!
 ! A39   A(6,19,20)       128.9754  128.9754  129.3722 calculate D2E/DX2 analyti!
 ! A40   A(18,19,20)      122.7489  122.7489  122.5208 calculate D2E/DX2 analyti!
 ! A41   A(2,21,12)       113.5548  113.5548  113.5347 calculate D2E/DX2 analyti!
 ! A42   A(2,21,22)       123.883   123.883   123.7857 calculate D2E/DX2 analyti!
 ! A43   A(12,21,22)      122.5622  122.5622  122.6795 calculate D2E/DX2 analyti!
 ! A44   A(8,23,15)       114.7693  114.7693  114.3334 calculate D2E/DX2 analyti!
 ! A45   A(8,23,24)       123.9402  123.9402  123.617  calculate D2E/DX2 analyti!
 ! A46   A(15,23,24)      121.2606  121.2606  122.0378 calculate D2E/DX2 analyti!
 ! A47   A(5,25,18)       115.1793  115.1793  114.8756 calculate D2E/DX2 analyti!
 ! A48   A(5,25,26)       123.3742  123.3742  123.7483 calculate D2E/DX2 analyti!
 ! A49   A(18,25,26)      121.4421  121.4421  121.376  calculate D2E/DX2 analyti!
 ! A50   A(25,26,57)       89.4978   89.4978  107.2927 calculate D2E/DX2 analyti!
 ! A51   A(28,27,29)      101.5301  110.882   102.6271 calculate D2E/DX2 analyti!
 ! A52   A(28,27,30)      120.4792  113.9242  115.4329 calculate D2E/DX2 analyti!
 ! A53   A(28,27,36)      117.6014  107.5917  109.7709 calculate D2E/DX2 analyti!
 ! A54   A(29,27,30)       99.7844  111.9518  109.2534 calculate D2E/DX2 analyti!
 ! A55   A(29,27,36)      104.8355  102.571   105.5463 calculate D2E/DX2 analyti!
 ! A56   A(30,27,36)      109.1975  109.1975  113.2171 calculate D2E/DX2 analyti!
 ! A57   A(27,28,31)      130.6938  110.8667  111.7506 calculate D2E/DX2 analyti!
 ! A58   A(27,28,32)      117.133   112.5543  113.5265 calculate D2E/DX2 analyti!
 ! A59   A(27,28,66)       85.2339  110.1251   77.4915 calculate D2E/DX2 analyti!
 ! A60   A(27,28,68)       94.0881   70.2112  103.8215 calculate D2E/DX2 analyti!
 ! A61   A(31,28,32)      109.8486  109.8486  112.1443 calculate D2E/DX2 analyti!
 ! A62   A(31,28,66)       79.3184  105.9794   51.9301 calculate D2E/DX2 analyti!
 ! A63   A(31,28,68)      105.1803   93.7475  107.3506 calculate D2E/DX2 analyti!
 ! A64   A(32,28,66)       91.4567  107.1943  164.036  calculate D2E/DX2 analyti!
 ! A65   A(32,28,68)       83.8935   55.7147  107.6219 calculate D2E/DX2 analyti!
 ! A66   A(27,29,67)      114.9887  118.4447  109.7595 calculate D2E/DX2 analyti!
 ! A67   A(27,30,33)      109.9784  109.9784  110.6984 calculate D2E/DX2 analyti!
 ! A68   A(27,30,34)      110.3035  110.3035  111.1172 calculate D2E/DX2 analyti!
 ! A69   A(27,30,35)      109.7544  109.7544  109.5821 calculate D2E/DX2 analyti!
 ! A70   A(33,30,34)      109.0824  109.0824  108.7185 calculate D2E/DX2 analyti!
 ! A71   A(33,30,35)      108.5399  108.5399  108.1358 calculate D2E/DX2 analyti!
 ! A72   A(34,30,35)      109.1494  109.1494  108.5106 calculate D2E/DX2 analyti!
 ! A73   A(38,37,45)      109.9939  109.9939  109.8203 calculate D2E/DX2 analyti!
 ! A74   A(38,37,52)      108.181   108.181   107.5466 calculate D2E/DX2 analyti!
 ! A75   A(38,37,59)      111.7945  111.7945  111.9844 calculate D2E/DX2 analyti!
 ! A76   A(45,37,52)      108.2052  108.2052  108.0752 calculate D2E/DX2 analyti!
 ! A77   A(45,37,59)      111.4096  111.4096  111.81   calculate D2E/DX2 analyti!
 ! A78   A(52,37,59)      107.0958  107.0958  107.4058 calculate D2E/DX2 analyti!
 ! A79   A(37,38,39)      117.4865  117.4865  117.4822 calculate D2E/DX2 analyti!
 ! A80   A(37,38,40)      105.6061  105.6061  106.0902 calculate D2E/DX2 analyti!
 ! A81   A(37,38,41)      105.7759  105.7759  105.4432 calculate D2E/DX2 analyti!
 ! A82   A(39,38,40)      110.5708  110.5708  109.3031 calculate D2E/DX2 analyti!
 ! A83   A(39,38,41)      108.5664  108.5664  109.0746 calculate D2E/DX2 analyti!
 ! A84   A(40,38,41)      108.4458  108.4458  109.1687 calculate D2E/DX2 analyti!
 ! A85   A(38,39,42)      106.753   106.753   106.2283 calculate D2E/DX2 analyti!
 ! A86   A(38,39,43)      113.5587  113.5587  113.1857 calculate D2E/DX2 analyti!
 ! A87   A(38,39,44)      112.8467  112.8467  113.4752 calculate D2E/DX2 analyti!
 ! A88   A(42,39,43)      107.3837  107.3837  106.8298 calculate D2E/DX2 analyti!
 ! A89   A(42,39,44)      107.0694  107.0694  107.567  calculate D2E/DX2 analyti!
 ! A90   A(43,39,44)      108.8662  108.8662  109.1504 calculate D2E/DX2 analyti!
 ! A91   A(38,40,66)      134.1706  131.2489  160.6359 calculate D2E/DX2 analyti!
 ! A92   A(37,45,46)      116.0018  116.0018  116.1796 calculate D2E/DX2 analyti!
 ! A93   A(37,45,47)      106.6832  106.6832  106.6771 calculate D2E/DX2 analyti!
 ! A94   A(37,45,48)      105.7467  105.7467  105.5324 calculate D2E/DX2 analyti!
 ! A95   A(46,45,47)      109.8273  109.8273  109.4832 calculate D2E/DX2 analyti!
 ! A96   A(46,45,48)      110.5563  110.5563  111.1144 calculate D2E/DX2 analyti!
 ! A97   A(47,45,48)      107.6246  107.6246  107.4126 calculate D2E/DX2 analyti!
 ! A98   A(45,46,49)      107.2111  107.2111  107.4438 calculate D2E/DX2 analyti!
 ! A99   A(45,46,50)      112.9873  112.9873  112.163  calculate D2E/DX2 analyti!
 ! A100  A(45,46,51)      113.3148  113.3148  114.2069 calculate D2E/DX2 analyti!
 ! A101  A(49,46,50)      107.4214  107.4214  107.2565 calculate D2E/DX2 analyti!
 ! A102  A(49,46,51)      107.5801  107.5801  107.8183 calculate D2E/DX2 analyti!
 ! A103  A(50,46,51)      108.0355  108.0355  107.6587 calculate D2E/DX2 analyti!
 ! A104  A(37,52,53)      115.6813  115.6813  115.82   calculate D2E/DX2 analyti!
 ! A105  A(37,52,54)      105.8983  105.8983  106.5127 calculate D2E/DX2 analyti!
 ! A106  A(37,52,55)      105.6522  105.6522  105.2721 calculate D2E/DX2 analyti!
 ! A107  A(53,52,54)      109.9312  109.9312  109.9329 calculate D2E/DX2 analyti!
 ! A108  A(53,52,55)      110.5705  110.5705  110.4739 calculate D2E/DX2 analyti!
 ! A109  A(54,52,55)      108.7925  108.7925  108.4954 calculate D2E/DX2 analyti!
 ! A110  A(52,53,56)      107.5938  107.5938  107.0719 calculate D2E/DX2 analyti!
 ! A111  A(52,53,57)      112.9521  112.9521  113.1978 calculate D2E/DX2 analyti!
 ! A112  A(52,53,58)      113.0357  113.0357  113.5968 calculate D2E/DX2 analyti!
 ! A113  A(56,53,57)      107.0583  107.0583  107.1594 calculate D2E/DX2 analyti!
 ! A114  A(56,53,58)      107.1044  107.1044  107.7247 calculate D2E/DX2 analyti!
 ! A115  A(57,53,58)      108.7562  108.7562  107.7729 calculate D2E/DX2 analyti!
 ! A116  A(5,54,52)       157.6567  157.6567  159.8612 calculate D2E/DX2 analyti!
 ! A117  A(26,57,53)       91.2628   91.2628  106.6156 calculate D2E/DX2 analyti!
 ! A118  A(37,59,60)      117.0471  117.0471  116.7215 calculate D2E/DX2 analyti!
 ! A119  A(37,59,61)      105.4559  105.4559  105.5196 calculate D2E/DX2 analyti!
 ! A120  A(37,59,62)      106.9102  106.9102  105.7955 calculate D2E/DX2 analyti!
 ! A121  A(60,59,61)      110.9535  110.9535  111.3369 calculate D2E/DX2 analyti!
 ! A122  A(60,59,62)      108.231   108.231   107.4734 calculate D2E/DX2 analyti!
 ! A123  A(61,59,62)      107.8476  107.8476  109.7615 calculate D2E/DX2 analyti!
 ! A124  A(59,60,63)      106.0756  106.0756  106.295  calculate D2E/DX2 analyti!
 ! A125  A(59,60,64)      114.2922  114.2922  114.1645 calculate D2E/DX2 analyti!
 ! A126  A(59,60,65)      111.915   111.915   110.9662 calculate D2E/DX2 analyti!
 ! A127  A(63,60,64)      107.2313  107.2313  107.6057 calculate D2E/DX2 analyti!
 ! A128  A(63,60,65)      106.8113  106.8113  106.5083 calculate D2E/DX2 analyti!
 ! A129  A(64,60,65)      110.052   110.052   110.848  calculate D2E/DX2 analyti!
 ! A130  A(59,62,69)      161.5062  163.2204  114.7975 calculate D2E/DX2 analyti!
 ! A131  A(29,67,68)      121.0131  121.0131  113.6654 calculate D2E/DX2 analyti!
 ! A132  A(29,67,69)      110.3945  110.3945  122.6685 calculate D2E/DX2 analyti!
 ! A133  A(68,67,69)      128.5756  128.5756  123.5471 calculate D2E/DX2 analyti!
 ! A134  A(28,68,67)      103.4877   85.5012  109.4803 calculate D2E/DX2 analyti!
 ! A135  A(11,69,62)       95.5463  111.8082   89.4818 calculate D2E/DX2 analyti!
 ! A136  A(11,69,67)      137.151   126.1789  132.8885 calculate D2E/DX2 analyti!
 ! A137  A(62,69,67)      115.9489  117.3171   96.89   calculate D2E/DX2 analyti!
 ! D1    D(1,2,3,4)         5.7114    5.7114    6.4154 calculate D2E/DX2 analyti!
 ! D2    D(1,2,3,13)     -173.2773 -173.2773 -172.4761 calculate D2E/DX2 analyti!
 ! D3    D(21,2,3,4)      178.9833  178.9833  178.893  calculate D2E/DX2 analyti!
 ! D4    D(21,2,3,13)      -0.0054   -0.0054    0.0015 calculate D2E/DX2 analyti!
 ! D5    D(1,2,21,12)     166.7174  166.7174  164.0799 calculate D2E/DX2 analyti!
 ! D6    D(1,2,21,22)     -13.1906  -13.1906  -15.801  calculate D2E/DX2 analyti!
 ! D7    D(3,2,21,12)       0.1635    0.1635    0.1336 calculate D2E/DX2 analyti!
 ! D8    D(3,2,21,22)    -179.7445 -179.7445 -179.7473 calculate D2E/DX2 analyti!
 ! D9    D(2,3,13,12)      -0.1445   -0.1445   -0.1278 calculate D2E/DX2 analyti!
 ! D10   D(2,3,13,14)     179.9081  179.9081  179.8051 calculate D2E/DX2 analyti!
 ! D11   D(4,3,13,12)    -178.9451 -178.9451 -178.8161 calculate D2E/DX2 analyti!
 ! D12   D(4,3,13,14)       1.1075    1.1075    1.1169 calculate D2E/DX2 analyti!
 ! D13   D(25,5,6,7)     -179.4385 -179.4385  178.3965 calculate D2E/DX2 analyti!
 ! D14   D(25,5,6,19)      -0.8242   -0.8242   -0.7077 calculate D2E/DX2 analyti!
 ! D15   D(54,5,6,7)      -93.2895  -93.2895  -90.5541 calculate D2E/DX2 analyti!
 ! D16   D(54,5,6,19)      85.3247   85.3247   90.3417 calculate D2E/DX2 analyti!
 ! D17   D(6,5,25,18)       0.8295    0.8295    0.7858 calculate D2E/DX2 analyti!
 ! D18   D(6,5,25,26)    -178.4154 -178.4154 -179.295  calculate D2E/DX2 analyti!
 ! D19   D(54,5,25,18)   -113.999  -113.999  -122.9852 calculate D2E/DX2 analyti!
 ! D20   D(54,5,25,26)     66.756    66.756    56.934  calculate D2E/DX2 analyti!
 ! D21   D(6,5,54,52)     -51.8407  -51.8407  -62.7211 calculate D2E/DX2 analyti!
 ! D22   D(25,5,54,52)     48.4154   48.4154   38.9892 calculate D2E/DX2 analyti!
 ! D23   D(5,6,19,18)       0.5747    0.5747    0.4186 calculate D2E/DX2 analyti!
 ! D24   D(5,6,19,20)    -178.5564 -178.5564  179.3303 calculate D2E/DX2 analyti!
 ! D25   D(7,6,19,18)     179.103   179.103  -178.6331 calculate D2E/DX2 analyti!
 ! D26   D(7,6,19,20)      -0.0282   -0.0282    0.2786 calculate D2E/DX2 analyti!
 ! D27   D(23,8,9,10)     179.8045  179.8045 -179.8934 calculate D2E/DX2 analyti!
 ! D28   D(23,8,9,16)      -0.0533   -0.0533   -0.0668 calculate D2E/DX2 analyti!
 ! D29   D(9,8,23,15)       0.3448    0.3448    0.1191 calculate D2E/DX2 analyti!
 ! D30   D(9,8,23,24)    -177.6819 -177.6819  178.891  calculate D2E/DX2 analyti!
 ! D31   D(8,9,16,15)      -0.2403   -0.2403   -0.0043 calculate D2E/DX2 analyti!
 ! D32   D(8,9,16,17)     178.4022  178.4022 -179.3622 calculate D2E/DX2 analyti!
 ! D33   D(10,9,16,15)    179.9101  179.9101  179.8126 calculate D2E/DX2 analyti!
 ! D34   D(10,9,16,17)     -1.4474   -1.4474    0.4547 calculate D2E/DX2 analyti!
 ! D35   D(15,11,12,13)   -61.9657  -61.9657  -44.2956 calculate D2E/DX2 analyti!
 ! D36   D(15,11,12,21)   104.084   104.084   119.5239 calculate D2E/DX2 analyti!
 ! D37   D(18,11,12,13)   175.4912  175.4912 -170.5146 calculate D2E/DX2 analyti!
 ! D38   D(18,11,12,21)   -18.459   -18.459    -6.6952 calculate D2E/DX2 analyti!
 ! D39   D(69,11,12,13)    57.4732   67.1694   80.4232 calculate D2E/DX2 analyti!
 ! D40   D(69,11,12,21)  -136.477  -126.7808 -115.7574 calculate D2E/DX2 analyti!
 ! D41   D(12,11,15,16)   -73.9244  -73.9244  -45.2963 calculate D2E/DX2 analyti!
 ! D42   D(12,11,15,23)   113.88    113.88    125.441  calculate D2E/DX2 analyti!
 ! D43   D(18,11,15,16)    44.4253   44.4253   78.6176 calculate D2E/DX2 analyti!
 ! D44   D(18,11,15,23)  -127.7703 -127.7703 -110.645  calculate D2E/DX2 analyti!
 ! D45   D(69,11,15,16)   161.9272  149.5691 -164.8405 calculate D2E/DX2 analyti!
 ! D46   D(69,11,15,23)   -10.2684  -22.6266    5.8969 calculate D2E/DX2 analyti!
 ! D47   D(12,11,18,19)   -66.1883  -66.1883  -66.6034 calculate D2E/DX2 analyti!
 ! D48   D(12,11,18,25)   140.4846  140.4846  129.7379 calculate D2E/DX2 analyti!
 ! D49   D(15,11,18,19)   172.0482  172.0482  168.2401 calculate D2E/DX2 analyti!
 ! D50   D(15,11,18,25)    18.721    18.721     4.5814 calculate D2E/DX2 analyti!
 ! D51   D(69,11,18,19)    55.7932   59.8902   44.6779 calculate D2E/DX2 analyti!
 ! D52   D(69,11,18,25)   -97.5339  -93.4369 -118.9808 calculate D2E/DX2 analyti!
 ! D53   D(12,11,69,62)   137.1289  132.6768  171.0715 calculate D2E/DX2 analyti!
 ! D54   D(12,11,69,67)   -84.1829  -72.5001  -89.9921 calculate D2E/DX2 analyti!
 ! D55   D(15,11,69,62)  -100.2457  -96.565   -65.9906 calculate D2E/DX2 analyti!
 ! D56   D(15,11,69,67)    38.4425   58.2581   32.9458 calculate D2E/DX2 analyti!
 ! D57   D(18,11,69,62)    20.4459   19.7035   56.9147 calculate D2E/DX2 analyti!
 ! D58   D(18,11,69,67)   159.1341  174.5266  155.8511 calculate D2E/DX2 analyti!
 ! D59   D(11,12,13,3)    167.8713  167.8713  166.1898 calculate D2E/DX2 analyti!
 ! D60   D(11,12,13,14)   -12.1772  -12.1772  -13.7483 calculate D2E/DX2 analyti!
 ! D61   D(21,12,13,3)      0.2328    0.2328    0.1996 calculate D2E/DX2 analyti!
 ! D62   D(21,12,13,14)  -179.8156 -179.8156 -179.7385 calculate D2E/DX2 analyti!
 ! D63   D(11,12,21,2)   -169.6098 -169.6098 -167.4208 calculate D2E/DX2 analyti!
 ! D64   D(11,12,21,22)    10.2996   10.2996   12.4616 calculate D2E/DX2 analyti!
 ! D65   D(13,12,21,2)     -0.2531   -0.2531   -0.2127 calculate D2E/DX2 analyti!
 ! D66   D(13,12,21,22)   179.6562  179.6562  179.6697 calculate D2E/DX2 analyti!
 ! D67   D(11,15,16,9)   -173.0704 -173.0704  172.8513 calculate D2E/DX2 analyti!
 ! D68   D(11,15,16,17)     8.1674    8.1674   -7.7327 calculate D2E/DX2 analyti!
 ! D69   D(23,15,16,9)      0.4165    0.4165    0.0712 calculate D2E/DX2 analyti!
 ! D70   D(23,15,16,17)  -178.3457 -178.3457  179.4872 calculate D2E/DX2 analyti!
 ! D71   D(11,15,23,8)    173.4343  173.4343 -172.376  calculate D2E/DX2 analyti!
 ! D72   D(11,15,23,24)    -8.4808   -8.4808    8.8304 calculate D2E/DX2 analyti!
 ! D73   D(16,15,23,8)     -0.4875   -0.4875   -0.1216 calculate D2E/DX2 analyti!
 ! D74   D(16,15,23,24)   177.5973  177.5973 -178.9153 calculate D2E/DX2 analyti!
 ! D75   D(11,18,19,6)   -157.2242 -157.2242 -165.9225 calculate D2E/DX2 analyti!
 ! D76   D(11,18,19,20)    21.9727   21.9727   15.0753 calculate D2E/DX2 analyti!
 ! D77   D(25,18,19,6)     -0.0627   -0.0627    0.0565 calculate D2E/DX2 analyti!
 ! D78   D(25,18,19,20)   179.1342  179.1342 -178.9457 calculate D2E/DX2 analyti!
 ! D79   D(11,18,25,5)    158.8209  158.8209  167.0114 calculate D2E/DX2 analyti!
 ! D80   D(11,18,25,26)   -21.9181  -21.9181  -12.9099 calculate D2E/DX2 analyti!
 ! D81   D(19,18,25,5)     -0.495    -0.495    -0.5427 calculate D2E/DX2 analyti!
 ! D82   D(19,18,25,26)   178.766   178.766   179.536  calculate D2E/DX2 analyti!
 ! D83   D(5,25,26,57)   -110.4789 -110.4789 -100.8154 calculate D2E/DX2 analyti!
 ! D84   D(18,25,26,57)    70.322    70.322    79.0988 calculate D2E/DX2 analyti!
 ! D85   D(25,26,57,53)   118.3101  118.3101  104.2537 calculate D2E/DX2 analyti!
 ! D86   D(29,27,28,31)   -96.7677  -39.452  -115.5902 calculate D2E/DX2 analyti!
 ! D87   D(29,27,28,32)   102.5201   84.0373  116.3616 calculate D2E/DX2 analyti!
 ! D88   D(29,27,28,66)  -168.2857 -156.4179  -75.8132 calculate D2E/DX2 analyti!
 ! D89   D(29,27,28,68)    17.2932   46.9465   -0.1984 calculate D2E/DX2 analyti!
 ! D90   D(30,27,28,31)   154.4898 -166.8224  125.6777 calculate D2E/DX2 analyti!
 ! D91   D(30,27,28,32)    -6.2225  -43.3331   -2.3704 calculate D2E/DX2 analyti!
 ! D92   D(30,27,28,66)    82.9718   76.2117  165.4547 calculate D2E/DX2 analyti!
 ! D93   D(30,27,28,68)   -91.4494  -80.424  -118.9305 calculate D2E/DX2 analyti!
 ! D94   D(36,27,28,31)    16.9063   71.9765   -3.7272 calculate D2E/DX2 analyti!
 ! D95   D(36,27,28,32)  -143.8059 -164.5343 -131.7753 calculate D2E/DX2 analyti!
 ! D96   D(36,27,28,66)   -54.6117  -44.9895   36.0498 calculate D2E/DX2 analyti!
 ! D97   D(36,27,28,68)   130.9672  158.3749  111.6647 calculate D2E/DX2 analyti!
 ! D98   D(28,27,29,67)   -14.0421  -62.3902    4.8686 calculate D2E/DX2 analyti!
 ! D99   D(30,27,29,67)   110.0479   66.0523  127.8536 calculate D2E/DX2 analyti!
 ! D100  D(36,27,29,67)  -136.9439 -177.0039 -110.1006 calculate D2E/DX2 analyti!
 ! D101  D(28,27,30,33)   161.1706 -178.4009  174.7083 calculate D2E/DX2 analyti!
 ! D102  D(28,27,30,34)    40.812    61.2405   53.7987 calculate D2E/DX2 analyti!
 ! D103  D(28,27,30,35)   -79.4864  -59.0579  -66.1098 calculate D2E/DX2 analyti!
 ! D104  D(29,27,30,33)    51.4854   54.7836   59.7157 calculate D2E/DX2 analyti!
 ! D105  D(29,27,30,34)   -68.8733  -65.575   -61.1939 calculate D2E/DX2 analyti!
 ! D106  D(29,27,30,35)   170.8284  174.1266  178.8976 calculate D2E/DX2 analyti!
 ! D107  D(36,27,30,33)   -58.0974  -58.0974  -57.59   calculate D2E/DX2 analyti!
 ! D108  D(36,27,30,34)  -178.456  -178.456  -178.4996 calculate D2E/DX2 analyti!
 ! D109  D(36,27,30,35)    61.2456   61.2456   61.5919 calculate D2E/DX2 analyti!
 ! D110  D(27,28,68,67)   -21.1987  -43.8028   -4.509  calculate D2E/DX2 analyti!
 ! D111  D(31,28,68,67)   112.9645   67.0393  113.9594 calculate D2E/DX2 analyti!
 ! D112  D(32,28,68,67)  -138.0825  178.5801 -125.1371 calculate D2E/DX2 analyti!
 ! D113  D(27,29,67,68)    -3.1954    8.1769   -8.4479 calculate D2E/DX2 analyti!
 ! D114  D(27,29,67,69)   175.4332 -173.1945  175.3915 calculate D2E/DX2 analyti!
 ! D115  D(45,37,38,39)   -38.0447  -38.0447  -38.6482 calculate D2E/DX2 analyti!
 ! D116  D(45,37,38,40)  -161.8626 -161.8626 -161.1856 calculate D2E/DX2 analyti!
 ! D117  D(45,37,38,41)    83.2844   83.2844   83.0785 calculate D2E/DX2 analyti!
 ! D118  D(52,37,38,39)  -156.0415 -156.0415 -156.0262 calculate D2E/DX2 analyti!
 ! D119  D(52,37,38,40)    80.1405   80.1405   81.4364 calculate D2E/DX2 analyti!
 ! D120  D(52,37,38,41)   -34.7125  -34.7125  -34.2995 calculate D2E/DX2 analyti!
 ! D121  D(59,37,38,39)    86.2769   86.2769   86.1997 calculate D2E/DX2 analyti!
 ! D122  D(59,37,38,40)   -37.5411  -37.5411  -36.3377 calculate D2E/DX2 analyti!
 ! D123  D(59,37,38,41)  -152.3941 -152.3941 -152.0736 calculate D2E/DX2 analyti!
 ! D124  D(38,37,45,46)  -175.1204 -175.1204  178.1925 calculate D2E/DX2 analyti!
 ! D125  D(38,37,45,47)    62.1857   62.1857   55.8313 calculate D2E/DX2 analyti!
 ! D126  D(38,37,45,48)   -52.2022  -52.2022  -58.2163 calculate D2E/DX2 analyti!
 ! D127  D(52,37,45,46)   -57.1385  -57.1385  -64.7598 calculate D2E/DX2 analyti!
 ! D128  D(52,37,45,47)  -179.8324 -179.8324  172.879  calculate D2E/DX2 analyti!
 ! D129  D(52,37,45,48)    65.7797   65.7797   58.8314 calculate D2E/DX2 analyti!
 ! D130  D(59,37,45,46)    60.3358   60.3358   53.2441 calculate D2E/DX2 analyti!
 ! D131  D(59,37,45,47)   -62.3582  -62.3582  -69.1171 calculate D2E/DX2 analyti!
 ! D132  D(59,37,45,48)  -176.7461 -176.7461  176.8353 calculate D2E/DX2 analyti!
 ! D133  D(38,37,52,53)   -46.4715  -46.4715  -55.2382 calculate D2E/DX2 analyti!
 ! D134  D(38,37,52,54)  -168.4947 -168.4947 -177.8171 calculate D2E/DX2 analyti!
 ! D135  D(38,37,52,55)    76.1862   76.1862   67.0997 calculate D2E/DX2 analyti!
 ! D136  D(45,37,52,53)  -165.6061 -165.6061 -173.7457 calculate D2E/DX2 analyti!
 ! D137  D(45,37,52,54)    72.3707   72.3707   63.6754 calculate D2E/DX2 analyti!
 ! D138  D(45,37,52,55)   -42.9484  -42.9484  -51.4078 calculate D2E/DX2 analyti!
 ! D139  D(59,37,52,53)    74.1831   74.1831   65.4648 calculate D2E/DX2 analyti!
 ! D140  D(59,37,52,54)   -47.8401  -47.8401  -57.1142 calculate D2E/DX2 analyti!
 ! D141  D(59,37,52,55)  -163.1592 -163.1592 -172.1974 calculate D2E/DX2 analyti!
 ! D142  D(38,37,59,60)   -57.942   -57.942   -65.0542 calculate D2E/DX2 analyti!
 ! D143  D(38,37,59,61)   178.1572  178.1572  170.7124 calculate D2E/DX2 analyti!
 ! D144  D(38,37,59,62)    63.5487   63.5487   54.4026 calculate D2E/DX2 analyti!
 ! D145  D(45,37,59,60)    65.5841   65.5841   58.6845 calculate D2E/DX2 analyti!
 ! D146  D(45,37,59,61)   -58.3167  -58.3167  -65.5488 calculate D2E/DX2 analyti!
 ! D147  D(45,37,59,62)  -172.9252 -172.9252  178.1413 calculate D2E/DX2 analyti!
 ! D148  D(52,37,59,60)  -176.2724 -176.2724  177.0878 calculate D2E/DX2 analyti!
 ! D149  D(52,37,59,61)    59.8268   59.8268   52.8544 calculate D2E/DX2 analyti!
 ! D150  D(52,37,59,62)   -54.7817  -54.7817  -63.4555 calculate D2E/DX2 analyti!
 ! D151  D(37,38,39,42)  -175.2362 -175.2362 -172.8184 calculate D2E/DX2 analyti!
 ! D152  D(37,38,39,43)   -57.0954  -57.0954  -55.9012 calculate D2E/DX2 analyti!
 ! D153  D(37,38,39,44)    67.4112   67.4112   69.2045 calculate D2E/DX2 analyti!
 ! D154  D(40,38,39,42)   -53.9602  -53.9602  -51.9408 calculate D2E/DX2 analyti!
 ! D155  D(40,38,39,43)    64.1805   64.1805   64.9765 calculate D2E/DX2 analyti!
 ! D156  D(40,38,39,44)  -171.3128 -171.3128 -169.9179 calculate D2E/DX2 analyti!
 ! D157  D(41,38,39,42)    64.893    64.893    67.3495 calculate D2E/DX2 analyti!
 ! D158  D(41,38,39,43)  -176.9663 -176.9663 -175.7333 calculate D2E/DX2 analyti!
 ! D159  D(41,38,39,44)   -52.4596  -52.4596  -50.6276 calculate D2E/DX2 analyti!
 ! D160  D(37,38,40,66)  -178.2189 -177.4302   69.6205 calculate D2E/DX2 analyti!
 ! D161  D(39,38,40,66)    53.7078   54.4966  -57.9638 calculate D2E/DX2 analyti!
 ! D162  D(41,38,40,66)   -65.2186  -64.4298 -177.1959 calculate D2E/DX2 analyti!
 ! D163  D(37,45,46,49)   178.9849  178.9849  174.7438 calculate D2E/DX2 analyti!
 ! D164  D(37,45,46,50)   -62.8591  -62.8591  -67.6266 calculate D2E/DX2 analyti!
 ! D165  D(37,45,46,51)    60.4422   60.4422   55.2102 calculate D2E/DX2 analyti!
 ! D166  D(47,45,46,49)   -59.9903  -59.9903  -64.3833 calculate D2E/DX2 analyti!
 ! D167  D(47,45,46,50)    58.1658   58.1658   53.2463 calculate D2E/DX2 analyti!
 ! D168  D(47,45,46,51)  -178.5329 -178.5329  176.0831 calculate D2E/DX2 analyti!
 ! D169  D(48,45,46,49)    58.6271   58.6271   54.0992 calculate D2E/DX2 analyti!
 ! D170  D(48,45,46,50)   176.7831  176.7831  171.7287 calculate D2E/DX2 analyti!
 ! D171  D(48,45,46,51)   -59.9156  -59.9156  -65.4344 calculate D2E/DX2 analyti!
 ! D172  D(37,52,53,56)  -170.9693 -170.9693  177.3527 calculate D2E/DX2 analyti!
 ! D173  D(37,52,53,57)   -53.0333  -53.0333  -64.7824 calculate D2E/DX2 analyti!
 ! D174  D(37,52,53,58)    70.9889   70.9889   58.5572 calculate D2E/DX2 analyti!
 ! D175  D(54,52,53,56)   -51.1221  -51.1221  -61.8943 calculate D2E/DX2 analyti!
 ! D176  D(54,52,53,57)    66.814    66.814    55.9706 calculate D2E/DX2 analyti!
 ! D177  D(54,52,53,58)  -169.1638 -169.1638  179.3101 calculate D2E/DX2 analyti!
 ! D178  D(55,52,53,56)    69.0161   69.0161   57.8147 calculate D2E/DX2 analyti!
 ! D179  D(55,52,53,57)  -173.0478 -173.0478  175.6797 calculate D2E/DX2 analyti!
 ! D180  D(55,52,53,58)   -49.0257  -49.0257  -60.9808 calculate D2E/DX2 analyti!
 ! D181  D(37,52,54,5)     68.1446   68.1446   67.3533 calculate D2E/DX2 analyti!
 ! D182  D(53,52,54,5)    -57.4884  -57.4884  -58.8562 calculate D2E/DX2 analyti!
 ! D183  D(55,52,54,5)   -178.6988 -178.6988 -179.7629 calculate D2E/DX2 analyti!
 ! D184  D(52,53,57,26)   -75.985   -75.985   -66.7031 calculate D2E/DX2 analyti!
 ! D185  D(56,53,57,26)    42.264    42.264    51.1108 calculate D2E/DX2 analyti!
 ! D186  D(58,53,57,26)   157.6744  157.6744  166.8052 calculate D2E/DX2 analyti!
 ! D187  D(37,59,60,63)  -172.0898 -172.0898 -171.7315 calculate D2E/DX2 analyti!
 ! D188  D(37,59,60,64)   -54.1659  -54.1659  -53.2714 calculate D2E/DX2 analyti!
 ! D189  D(37,59,60,65)    71.7829   71.7829   72.8611 calculate D2E/DX2 analyti!
 ! D190  D(61,59,60,63)   -51.0309  -51.0309  -50.5164 calculate D2E/DX2 analyti!
 ! D191  D(61,59,60,64)    66.8931   66.8931   67.9436 calculate D2E/DX2 analyti!
 ! D192  D(61,59,60,65)  -167.1582 -167.1582 -165.9239 calculate D2E/DX2 analyti!
 ! D193  D(62,59,60,63)    67.1116   67.1116   69.716  calculate D2E/DX2 analyti!
 ! D194  D(62,59,60,64)  -174.9644 -174.9644 -171.8239 calculate D2E/DX2 analyti!
 ! D195  D(62,59,60,65)   -49.0157  -49.0157  -45.6914 calculate D2E/DX2 analyti!
 ! D196  D(37,59,62,69)  -139.7906 -152.7747  170.5049 calculate D2E/DX2 analyti!
 ! D197  D(60,59,62,69)   -12.8828  -25.8669  -64.118  calculate D2E/DX2 analyti!
 ! D198  D(61,59,62,69)   107.2231   94.2391   57.108  calculate D2E/DX2 analyti!
 ! D199  D(59,62,69,11)  -120.8634 -108.6181  -99.826  calculate D2E/DX2 analyti!
 ! D200  D(59,62,69,67)    89.0894   94.1179  126.9809 calculate D2E/DX2 analyti!
 ! D201  D(29,67,68,28)    15.6884   19.9659    8.2826 calculate D2E/DX2 analyti!
 ! D202  D(69,67,68,28)  -162.6673 -158.3898 -175.5954 calculate D2E/DX2 analyti!
 ! D203  D(29,67,69,11)   174.2124 -168.3499 -178.4584 calculate D2E/DX2 analyti!
 ! D204  D(29,67,69,62)   -52.7356  -14.7441  -82.7303 calculate D2E/DX2 analyti!
 ! D205  D(68,67,69,11)    -7.291    10.1466    5.7615 calculate D2E/DX2 analyti!
 ! D206  D(68,67,69,62)   125.761   163.7524  101.4897 calculate D2E/DX2 analyti!
 --------------------------------------------------------------------------------
 Trust Radius=3.00D-01 FncErr=1.00D-07 GrdErr=1.00D-06 EigMax=2.50D+02 EigMin=1.00D-04
 Number of steps in this run=    414 maximum allowed number of steps=    414.
 Search for a saddle point of order  1.
 GradGradGradGradGradGradGradGradGradGradGradGradGradGradGradGradGradGrad

 Symmetry turned off by external request.
 Stoichiometry    C21H29BrCl6LiN7O3Zn
 Framework group  C1[X(C21H29BrCl6LiN7O3Zn)]
 Deg. of freedom   201
 Full point group                 C1      NOp   1
                          Input orientation:                          
 ---------------------------------------------------------------------
 Center     Atomic      Atomic             Coordinates (Angstroms)
 Number     Number       Type             X           Y           Z
 ---------------------------------------------------------------------
      1          3           0       -0.656174   -5.038394   -3.457440
      2          7           0       -0.282792   -3.675582   -2.194684
      3          6           0       -0.880553   -4.099599   -1.043848
      4         17           0       -1.595141   -5.683300   -1.029808
      5          7           0        2.328228    2.599049   -2.419433
      6          6           0        3.255849    1.618551   -2.306728
      7         17           0        4.893607    1.822812   -2.834671
      8          7           0       -3.327483    2.075083    1.065729
      9          6           0       -3.493586    2.081110   -0.276738
     10         17           0       -4.808310    2.896461   -1.050793
     11         30           0        0.110179   -0.078830   -0.032743
     12          7           0       -0.147011   -2.063685   -0.649851
     13          6           0       -0.806821   -3.124581   -0.092483
     14         17           0       -1.389436   -3.125019    1.511663
     15          7           0       -1.663097    0.891230    0.097040
     16          6           0       -2.492237    1.363356   -0.879433
     17         17           0       -2.238804    1.017629   -2.554089
     18          7           0        1.395534    0.780478   -1.436720
     19          6           0        2.704995    0.512987   -1.705299
     20         17           0        3.454790   -0.987571   -1.296098
     21          6           0        0.139166   -2.440726   -1.898929
     22          1           0        0.660755   -1.799684   -2.594735
     23          6           0       -2.231154    1.353342    1.242197
     24          1           0       -1.818481    1.108799    2.212052
     25          6           0        1.236585    2.045185   -1.896627
     26          1           0        0.280045    2.548265   -1.845566
     27          6           0        1.345226    0.253167    5.493468
     28          6           0       -0.292589    0.651208    5.443398
     29          8           0        1.706268    0.149215    3.897069
     30          6           0        1.789428   -1.126553    5.949028
     31          1           0       -0.790807    1.616751    5.511514
     32          1           0       -1.001175   -0.143887    5.647032
     33          1           0        2.809817   -1.320962    5.610295
     34          1           0        1.127035   -1.890817    5.541933
     35          1           0        1.769617   -1.179302    7.039817
     36          1           0        2.037065    1.002564    5.888871
     37          7           0        3.125460    3.955821    1.460492
     38          6           0        2.846031    4.033977    2.953405
     39          6           0        4.041575    4.173362    3.885712
     40          1           0        2.275905    3.134900    3.192810
     41          1           0        2.196687    4.901027    3.088831
     42          1           0        3.652522    4.126390    4.906193
     43          1           0        4.772100    3.373426    3.779018
     44          1           0        4.551025    5.132805    3.780947
     45          6           0        4.259588    4.886186    1.097716
     46          6           0        4.577971    5.002778   -0.384462
     47          1           0        5.137046    4.534461    1.637261
     48          1           0        3.986634    5.861406    1.509582
     49          1           0        5.398798    5.717641   -0.483671
     50          1           0        4.909822    4.061439   -0.824170
     51          1           0        3.742775    5.376164   -0.977050
     52          6           0        1.873305    4.416811    0.716374
     53          6           0        0.561359    3.825556    1.205435
     54          1           0        2.033072    4.152748   -0.329195
     55          1           0        1.860929    5.506346    0.806548
     56          1           0       -0.215230    4.109698    0.491762
     57          1           0        0.575024    2.736657    1.246309
     58          1           0        0.257195    4.209441    2.180415
     59          6           0        3.412279    2.528799    1.012912
     60          6           0        4.569486    1.815141    1.684073
     61          1           0        3.562367    2.587014   -0.062202
     62          1           0        2.505433    1.951845    1.192798
     63          1           0        4.704840    0.878340    1.138117
     64          1           0        5.518384    2.356119    1.639205
     65          1           0        4.339590    1.548282    2.716343
     66         35           0       -0.039250    1.127819    7.851798
     67          6           0        0.611690    0.093898    3.052701
     68          8           0       -0.525935    0.064108    3.497784
     69          8           0        0.990165    0.110038    1.830263
 ---------------------------------------------------------------------
 Rotational constants (GHZ):           0.0528404           0.0438383           0.0351364
 General basis read from cards:  (5D, 7F)
 ======================================================================================================
                                       Pseudopotential Parameters
 ======================================================================================================
  Center     Atomic      Valence      Angular      Power
  Number     Number     Electrons     Momentum     of R      Exponent        Coefficient   SO-Coeffient
 ======================================================================================================
    1          3
                                   No pseudopotential on this center.
    2          7
                                   No pseudopotential on this center.
    3          6
                                   No pseudopotential on this center.
    4         17
                                   No pseudopotential on this center.
    5          7
                                   No pseudopotential on this center.
    6          6
                                   No pseudopotential on this center.
    7         17
                                   No pseudopotential on this center.
    8          7
                                   No pseudopotential on this center.
    9          6
                                   No pseudopotential on this center.
   10         17
                                   No pseudopotential on this center.
   11         30           12
                                      F and up 
                                                     1      386.7379660      -18.00000000    0.00000000
                                                     2       72.8587359     -124.35274030    0.00000000
                                                     2       15.9066170      -30.66018220    0.00000000
                                                     2        4.3502340      -10.63589890    0.00000000
                                                     2        1.2842199       -0.76836230    0.00000000
                                      S - F
                                                     0       19.0867858        3.00000000    0.00000000
                                                     1        5.0231080       22.52342250    0.00000000
                                                     2        1.2701744       48.44659420    0.00000000
                                                     2        1.0671287      -44.55601190    0.00000000
                                                     2        0.9264190       12.99839580    0.00000000
                                      P - F
                                                     0       43.4927750        5.00000000    0.00000000
                                                     1       20.8692669       20.74355890    0.00000000
                                                     2       21.7118378       90.30271580    0.00000000
                                                     2        6.3616915       74.66103160    0.00000000
                                                     2        1.2291195        9.88944240    0.00000000
                                      D - F
                                                     2       13.5851800       -4.84903590    0.00000000
                                                     2        9.8373050        3.69133790    0.00000000
                                                     2        0.8373113       -0.50373190    0.00000000
   12          7
                                   No pseudopotential on this center.
   13          6
                                   No pseudopotential on this center.
   14         17
                                   No pseudopotential on this center.
   15          7
                                   No pseudopotential on this center.
   16          6
                                   No pseudopotential on this center.
   17         17
                                   No pseudopotential on this center.
   18          7
                                   No pseudopotential on this center.
   19          6
                                   No pseudopotential on this center.
   20         17
                                   No pseudopotential on this center.
   21          6
                                   No pseudopotential on this center.
   22          1
                                   No pseudopotential on this center.
   23          6
                                   No pseudopotential on this center.
   24          1
                                   No pseudopotential on this center.
   25          6
                                   No pseudopotential on this center.
   26          1
                                   No pseudopotential on this center.
   27          6
                                   No pseudopotential on this center.
   28          6
                                   No pseudopotential on this center.
   29          8
                                   No pseudopotential on this center.
   30          6
                                   No pseudopotential on this center.
   31          1
                                   No pseudopotential on this center.
   32          1
                                   No pseudopotential on this center.
   33          1
                                   No pseudopotential on this center.
   34          1
                                   No pseudopotential on this center.
   35          1
                                   No pseudopotential on this center.
   36          1
                                   No pseudopotential on this center.
   37          7
                                   No pseudopotential on this center.
   38          6
                                   No pseudopotential on this center.
   39          6
                                   No pseudopotential on this center.
   40          1
                                   No pseudopotential on this center.
   41          1
                                   No pseudopotential on this center.
   42          1
                                   No pseudopotential on this center.
   43          1
                                   No pseudopotential on this center.
   44          1
                                   No pseudopotential on this center.
   45          6
                                   No pseudopotential on this center.
   46          6
                                   No pseudopotential on this center.
   47          1
                                   No pseudopotential on this center.
   48          1
                                   No pseudopotential on this center.
   49          1
                                   No pseudopotential on this center.
   50          1
                                   No pseudopotential on this center.
   51          1
                                   No pseudopotential on this center.
   52          6
                                   No pseudopotential on this center.
   53          6
                                   No pseudopotential on this center.
   54          1
                                   No pseudopotential on this center.
   55          1
                                   No pseudopotential on this center.
   56          1
                                   No pseudopotential on this center.
   57          1
                                   No pseudopotential on this center.
   58          1
                                   No pseudopotential on this center.
   59          6
                                   No pseudopotential on this center.
   60          6
                                   No pseudopotential on this center.
   61          1
                                   No pseudopotential on this center.
   62          1
                                   No pseudopotential on this center.
   63          1
                                   No pseudopotential on this center.
   64          1
                                   No pseudopotential on this center.
   65          1
                                   No pseudopotential on this center.
   66         35
                                   No pseudopotential on this center.
   67          6
                                   No pseudopotential on this center.
   68          8
                                   No pseudopotential on this center.
   69          8
                                   No pseudopotential on this center.
 ======================================================================================================
   747 basis functions,  1533 primitive gaussians,   789 cartesian basis functions
   190 alpha electrons      190 beta electrons
       nuclear repulsion energy      7154.7683511245 Hartrees.
 NAtoms=   69 NActive=   69 NUniq=   69 SFac= 1.00D+00 NAtFMM=   60 NAOKFM=T Big=T
 Integral buffers will be    131072 words long.
 Raffenetti 2 integral format.
 Two-electron integral symmetry is turned off.
 One-electron integrals computed using PRISM.
   1 Symmetry operations used in ECPInt.
 ECPInt:  NShTT=   34716 NPrTT=  206045 LenC2=   25550 LenP2D=   77512.
 LDataN:  DoStor=T MaxTD1= 5 Len=  102
 NBasis=   747 RedAO= T EigKep=  1.37D-03  NBF=   747
 NBsUse=   747 1.00D-06 EigRej= -1.00D+00 NBFU=   747
 ExpMin= 3.51D-02 ExpMax= 5.74D+05 ExpMxC= 5.74D+03 IAcc=3 IRadAn=         5 AccDes= 0.00D+00
 Harris functional with IExCor=20419 and IRadAn=       5 diagonalized for initial guess.
 HarFok:  IExCor=20419 AccDes= 0.00D+00 IRadAn=         5 IDoV= 1 UseB2=F ITyADJ=14
 ICtDFT=  3500011 ScaDFX=  1.000000  1.000000  1.000000  1.000000
 FoFCou: FMM=F IPFlag=           0 FMFlag=      100000 FMFlg1=        2001
         NFxFlg=           0 DoJE=T BraDBF=F KetDBF=T FulRan=T
         wScrn=  0.000000 ICntrl=       500 IOpCl=  0 I1Cent=   200000004 NGrid=           0
         NMat0=    1 NMatS0=      1 NMatT0=    0 NMatD0=    1 NMtDS0=    0 NMtDT0=    0
 Symmetry not used in FoFCou.
 Gradient too large for Newton-Raphson -- use scaled steepest descent instead.
 Gradient too large for Newton-Raphson -- use scaled steepest descent instead.
 Gradient too large for Newton-Raphson -- use scaled steepest descent instead.
 Gradient too large for Newton-Raphson -- use scaled steepest descent instead.
     Accept linear search using points  1 and  2.
 Gradient too large for Newton-Raphson -- use scaled steepest descent instead.
 Gradient too large for Newton-Raphson -- use scaled steepest descent instead.
     Accept linear search using points  1 and  2.
 LinEq1:  Iter=  0 NonCon=     1 RMS=3.11D-05 Max=6.25D-03 NDo=     1
 AX will form     1 AO Fock derivatives at one time.
 LinEq1:  Iter=  1 NonCon=     1 RMS=1.35D-05 Max=6.64D-04 NDo=     1
 LinEq1:  Iter=  2 NonCon=     1 RMS=4.49D-06 Max=2.65D-04 NDo=     1
 LinEq1:  Iter=  3 NonCon=     1 RMS=2.18D-06 Max=3.44D-04 NDo=     1
 LinEq1:  Iter=  4 NonCon=     1 RMS=8.05D-07 Max=3.70D-05 NDo=     1
 LinEq1:  Iter=  5 NonCon=     1 RMS=3.92D-07 Max=1.69D-05 NDo=     1
 LinEq1:  Iter=  6 NonCon=     1 RMS=1.87D-07 Max=8.65D-06 NDo=     1
 LinEq1:  Iter=  7 NonCon=     1 RMS=1.10D-07 Max=6.44D-06 NDo=     1
 LinEq1:  Iter=  8 NonCon=     1 RMS=6.35D-08 Max=4.27D-06 NDo=     1
 LinEq1:  Iter=  9 NonCon=     1 RMS=2.74D-08 Max=7.91D-07 NDo=     1
 LinEq1:  Iter= 10 NonCon=     1 RMS=1.72D-08 Max=6.90D-07 NDo=     1
 LinEq1:  Iter= 11 NonCon=     1 RMS=8.34D-09 Max=4.77D-07 NDo=     1
 LinEq1:  Iter= 12 NonCon=     0 RMS=5.08D-09 Max=3.80D-07 NDo=     1
 Linear equations converged to 4.601D-08 4.601D-07 after    12 iterations.
     Accept linear search using points  1 and  2.
     Minimum is close to point  2 DX= -6.93D-04 DF= -5.37D-11 DXR=  6.94D-04 DFR=  4.78D-07 which will be used.
 LinEq1:  Iter=  0 NonCon=     1 RMS=1.80D-07 Max=3.28D-05 NDo=     1
 LinEq1:  Iter=  1 NonCon=     1 RMS=6.93D-08 Max=5.12D-06 NDo=     1
 LinEq1:  Iter=  2 NonCon=     1 RMS=1.83D-08 Max=1.16D-06 NDo=     1
 LinEq1:  Iter=  3 NonCon=     1 RMS=1.03D-08 Max=8.15D-07 NDo=     1
 LinEq1:  Iter=  4 NonCon=     1 RMS=6.32D-09 Max=7.13D-07 NDo=     1
 LinEq1:  Iter=  5 NonCon=     1 RMS=2.89D-09 Max=3.28D-07 NDo=     1
 LinEq1:  Iter=  6 NonCon=     1 RMS=1.68D-09 Max=2.28D-07 NDo=     1
 LinEq1:  Iter=  7 NonCon=     1 RMS=9.39D-10 Max=9.62D-08 NDo=     1
 LinEq1:  Iter=  8 NonCon=     1 RMS=5.41D-10 Max=4.58D-08 NDo=     1
 LinEq1:  Iter=  9 NonCon=     1 RMS=3.20D-10 Max=1.99D-08 NDo=     1
 LinEq1:  Iter= 10 NonCon=     1 RMS=1.56D-10 Max=1.44D-08 NDo=     1
 LinEq1:  Iter= 11 NonCon=     0 RMS=6.14D-11 Max=2.34D-09 NDo=     1
 Linear equations converged to 4.811D-10 4.811D-09 after    11 iterations.
 SCF Done:  E(RCAM-B3LYP) =  -6831.70118455     a.u. after    9 cycles
            Convg  =    0.1400D-08                    43 Fock formations.
              S**2 =  0.0000                  -V/T =  1.9950
 DoSCS=F DFT=T ScalE2(SS,OS)=  1.000000  1.000000
 Range of M.O.s used for correlation:     1   747
 NBasis=   747 NAE=   190 NBE=   190 NFC=     0 NFV=     0
 NROrb=    747 NOA=   190 NOB=   190 NVA=   557 NVB=   557
   1 Symmetry operations used in ECPInt.
 ECPInt:  NShTT=   34716 NPrTT=  206045 LenC2=   25550 LenP2D=   77512.
 LDataN:  DoStor=T MaxTD1= 6 Len=  172
 Number of processors reduced to  11 by ecpmxn.
 Symmetrizing basis deriv contribution to polar:
 IMax=3 JMax=2 DiffMx= 0.00D+00
 G2DrvN: will do    70 centers at a time, making    1 passes.
 Calling FoFCou, ICntrl=  3107 FMM=T I1Cent=   0 AccDes= 0.00D+00.
 End of G2Drv F.D. properties file   721 does not exist.
 End of G2Drv F.D. properties file   722 does not exist.
 End of G2Drv F.D. properties file   788 does not exist.
          IDoAtm=00110110111111111111111111111111111111111111111111
          IDoAtm=1111111111111111111
          Differentiating once with respect to electric field.
                with respect to dipole field.
          Differentiating once with respect to nuclear coordinates.
 CalDSu exits because no D1Ps are significant.
          There are   198 degrees of freedom in the 1st order CPHF.  IDoFFX=6 NUNeed=     3.
    198 vectors produced by pass  0 Test12= 1.06D-13 1.00D-09 XBig12= 2.40D+02 8.02D+00.
 AX will form    96 AO Fock derivatives at one time.
    198 vectors produced by pass  1 Test12= 1.06D-13 1.00D-09 XBig12= 2.90D+01 6.65D-01.
    198 vectors produced by pass  2 Test12= 1.06D-13 1.00D-09 XBig12= 8.88D-01 1.35D-01.
    198 vectors produced by pass  3 Test12= 1.06D-13 1.00D-09 XBig12= 1.63D-02 1.88D-02.
    198 vectors produced by pass  4 Test12= 1.06D-13 1.00D-09 XBig12= 1.32D-04 2.11D-03.
    198 vectors produced by pass  5 Test12= 1.06D-13 1.00D-09 XBig12= 7.31D-07 1.23D-04.
    128 vectors produced by pass  6 Test12= 1.06D-13 1.00D-09 XBig12= 3.15D-09 5.69D-06.
     45 vectors produced by pass  7 Test12= 1.06D-13 1.00D-09 XBig12= 1.25D-11 3.21D-07.
      3 vectors produced by pass  8 Test12= 1.06D-13 1.00D-09 XBig12= 4.90D-14 1.97D-08.
      1 vectors produced by pass  9 Test12= 1.06D-13 1.00D-09 XBig12= 1.93D-16 1.06D-09.
 InvSVY:  IOpt=1 It=  1 EMax= 1.42D-14
 Solved reduced A of dimension  1365 with   198 vectors.
 Isotropic polarizability for W=    0.000000      377.13 Bohr**3.
 End of Minotr F.D. properties file   721 does not exist.
 End of Minotr F.D. properties file   722 does not exist.
 End of Minotr F.D. properties file   788 does not exist.

 **********************************************************************

            Population analysis using the SCF density.

 **********************************************************************

 Alpha  occ. eigenvalues -- -482.63482-101.65582-101.61641-101.60814-101.59893
 Alpha  occ. eigenvalues -- -101.58320-101.56083 -61.71708 -56.28587 -56.28386
 Alpha  occ. eigenvalues --  -56.28371 -19.23053 -19.20949 -19.19665 -14.56098
 Alpha  occ. eigenvalues --  -14.43786 -14.43698 -14.41370 -14.38412 -14.38327
 Alpha  occ. eigenvalues --  -14.34326 -10.41350 -10.35313 -10.35250 -10.35103
 Alpha  occ. eigenvalues --  -10.35087 -10.35043 -10.34149 -10.33950 -10.33216
 Alpha  occ. eigenvalues --  -10.32793 -10.32241 -10.31413 -10.29835 -10.29330
 Alpha  occ. eigenvalues --  -10.28967 -10.28941 -10.28127 -10.27913 -10.27688
 Alpha  occ. eigenvalues --  -10.25426 -10.24664  -9.58794  -9.54826  -9.53987
 Alpha  occ. eigenvalues --   -9.53107  -9.51495  -9.49346  -8.49836  -7.35185
 Alpha  occ. eigenvalues --   -7.34305  -7.34181  -7.31308  -7.30427  -7.30233
 Alpha  occ. eigenvalues --   -7.30230  -7.29535  -7.29428  -7.29413  -7.28560
 Alpha  occ. eigenvalues --   -7.28527  -7.27920  -7.26941  -7.26931  -7.25774
 Alpha  occ. eigenvalues --   -7.24786  -7.24769  -6.51224  -6.50547  -6.50516
 Alpha  occ. eigenvalues --   -2.63430  -2.63258  -2.63233  -2.62697  -2.62697
 Alpha  occ. eigenvalues --   -2.15771  -1.17855  -1.12891  -1.12527  -1.08768
 Alpha  occ. eigenvalues --   -1.06886  -1.05328  -1.04892  -1.00206  -0.97644
 Alpha  occ. eigenvalues --   -0.95884  -0.94643  -0.92840  -0.92773  -0.91280
 Alpha  occ. eigenvalues --   -0.91089  -0.90450  -0.89648  -0.89504  -0.86161
 Alpha  occ. eigenvalues --   -0.85507  -0.84885  -0.81395  -0.77879  -0.77690
 Alpha  occ. eigenvalues --   -0.77446  -0.77146  -0.75201  -0.74359  -0.71265
 Alpha  occ. eigenvalues --   -0.69381  -0.68502  -0.68365  -0.67785  -0.67482
 Alpha  occ. eigenvalues --   -0.67328  -0.66882  -0.66655  -0.65861  -0.64703
 Alpha  occ. eigenvalues --   -0.62852  -0.62576  -0.62275  -0.61580  -0.61019
 Alpha  occ. eigenvalues --   -0.60643  -0.60257  -0.59001  -0.58274  -0.57169
 Alpha  occ. eigenvalues --   -0.56271  -0.55602  -0.54656  -0.54432  -0.54331
 Alpha  occ. eigenvalues --   -0.53836  -0.53589  -0.53120  -0.52737  -0.51549
 Alpha  occ. eigenvalues --   -0.51172  -0.50978  -0.50424  -0.50093  -0.49374
 Alpha  occ. eigenvalues --   -0.49159  -0.48699  -0.48615  -0.48221  -0.47876
 Alpha  occ. eigenvalues --   -0.47800  -0.47398  -0.47330  -0.46823  -0.46744
 Alpha  occ. eigenvalues --   -0.46619  -0.46021  -0.45685  -0.45385  -0.45278
 Alpha  occ. eigenvalues --   -0.44942  -0.44136  -0.44002  -0.43743  -0.43597
 Alpha  occ. eigenvalues --   -0.43457  -0.42907  -0.42434  -0.41209  -0.41131
 Alpha  occ. eigenvalues --   -0.40990  -0.40330  -0.39543  -0.38714  -0.38482
 Alpha  occ. eigenvalues --   -0.38209  -0.37228  -0.36964  -0.36669  -0.36325
 Alpha  occ. eigenvalues --   -0.35763  -0.35146  -0.34614  -0.33863  -0.33308
 Alpha  occ. eigenvalues --   -0.32873  -0.31745  -0.29395  -0.29223  -0.28341
 Alpha  occ. eigenvalues --   -0.27693  -0.26861  -0.26848  -0.26155  -0.22729
 Alpha virt. eigenvalues --   -0.05638   0.00218   0.00950   0.01800   0.05081
 Alpha virt. eigenvalues --    0.05592   0.06199   0.07311   0.07892   0.08510
 Alpha virt. eigenvalues --    0.08927   0.09629   0.09904   0.10021   0.10624
 Alpha virt. eigenvalues --    0.10958   0.11465   0.11685   0.11791   0.12060
 Alpha virt. eigenvalues --    0.12208   0.12408   0.12835   0.12849   0.12976
 Alpha virt. eigenvalues --    0.13538   0.13634   0.13909   0.14127   0.14543
 Alpha virt. eigenvalues --    0.14976   0.15319   0.15642   0.15715   0.16020
 Alpha virt. eigenvalues --    0.16231   0.16604   0.17014   0.17827   0.18365
 Alpha virt. eigenvalues --    0.18697   0.19132   0.19484   0.20125   0.20159
 Alpha virt. eigenvalues --    0.20428   0.20869   0.21180   0.21893   0.22387
 Alpha virt. eigenvalues --    0.22907   0.23316   0.23469   0.24075   0.24468
 Alpha virt. eigenvalues --    0.25316   0.25475   0.25721   0.26136   0.26891
 Alpha virt. eigenvalues --    0.27121   0.27307   0.27378   0.27801   0.28731
 Alpha virt. eigenvalues --    0.29021   0.29567   0.29711   0.30835   0.31392
 Alpha virt. eigenvalues --    0.31586   0.32176   0.33471   0.33860   0.34398
 Alpha virt. eigenvalues --    0.35434   0.36940   0.37983   0.39269   0.39892
 Alpha virt. eigenvalues --    0.40431   0.40791   0.41296   0.41720   0.42314
 Alpha virt. eigenvalues --    0.43625   0.44176   0.44613   0.45377   0.45782
 Alpha virt. eigenvalues --    0.46954   0.47201   0.47346   0.47711   0.48588
 Alpha virt. eigenvalues --    0.48694   0.49017   0.49314   0.49697   0.50036
 Alpha virt. eigenvalues --    0.50185   0.50392   0.50809   0.51518   0.51544
 Alpha virt. eigenvalues --    0.51927   0.52405   0.52895   0.53289   0.53456
 Alpha virt. eigenvalues --    0.54290   0.55049   0.55563   0.55889   0.56106
 Alpha virt. eigenvalues --    0.56287   0.56656   0.57030   0.57810   0.57963
 Alpha virt. eigenvalues --    0.58508   0.58579   0.59130   0.59508   0.60419
[...]
 014917,0.00106032,0.00011795,0.00012348,0.00030025,0.00013785,0.000103
 50,-0.00050513,-0.00173443,-0.00043361,0.00006769,0.00028253,0.0008568
 5,0.00036126,0.00068272,0.00006834,0.00000316,-0.00155717,0.00236216,-
 0.00036400,0.00002933,0.00036007,0.00032400,0.00042001,-0.00044648,-0.
 00132086,-0.00063936,-0.00065499,-0.00549119,-0.00585009,-0.01403757,0
 .60172686,0.,0.,0.,0.,0.,0.,-0.00014080,-0.00039444,-0.00002325,-0.000
 01995,-0.00002107,0.00008235,0.,0.,0.,-0.00016438,-0.00006428,0.000000
 51,-0.00003062,-0.00003756,-0.00003436,0.,0.,0.,0.00007231,0.00013441,
 0.00001816,0.00005234,-0.00003368,0.00007857,0.00371164,0.00130644,-0.
 00041969,-0.00066134,-0.00093453,-0.00012084,0.00086795,0.00027132,-0.
 00226401,-0.00032428,-0.00007715,0.00099874,-0.00069267,-0.00035133,0.
 00017735,0.00010703,-0.00007170,0.00014657,-0.00007716,0.00000138,0.00
 016078,-0.00057836,0.00002501,-0.00010375,-0.00003801,0.00020187,0.000
 02548,0.00005545,-0.00018502,-0.00009140,-0.00001990,0.00022196,0.0004
 4692,0.00002986,0.00007188,0.00008529,-0.00032292,-0.00031479,-0.00119
 902,0.00032716,0.00115462,-0.00009293,0.00029750,0.00004278,-0.0002422
 7,0.00007328,0.00007031,0.00008994,0.01681388,0.00403389,-0.03479162,0
 .01012884,0.01496097,0.05355204,-0.07730264,-0.11972104,-0.03557820,-0
 .00342618,0.00070529,0.01075395,-0.00239453,-0.00073443,-0.00741629,-0
 .00227782,-0.00174227,-0.00263328,-0.00124832,0.00038429,-0.00089188,0
 .00070399,-0.00128320,-0.00007458,0.00211471,-0.00338120,0.00079697,-0
 .00143170,-0.00002494,0.00037437,0.00029802,0.00029448,-0.00021639,-0.
 00074730,-0.00095106,0.00060391,0.00010349,0.00035305,-0.00033262,-0.0
 0065081,-0.00176110,-0.00024397,0.00013673,0.00031126,-0.00017329,-0.0
 0004095,-0.00012181,-0.00008524,-0.00010716,-0.00010293,0.00000321,0.0
 0022113,0.00013882,0.00007160,-0.00050800,-0.00040284,0.00002749,0.000
 17214,0.00011699,0.00001756,-0.00000483,-0.00001783,-0.00001820,0.0000
 1599,0.00003804,-0.00000730,0.00004278,0.00004328,-0.00005835,-0.00004
 755,0.00000248,0.00007509,-0.00003754,-0.00001728,0.00001830,0.0000692
 0,-0.00017473,0.00029699,-0.00034695,-0.00023608,-0.00052891,0.0000523
 4,0.00007192,0.00005067,0.00008708,0.00010026,-0.00001735,0.00008408,0
 .00044692,-0.00024743,0.00040896,-0.00041850,0.00156300,0.00028338,-0.
 00046573,-0.00005330,-0.00076270,-0.00101097,-0.00040946,0.00007760,0.
 00016754,0.00059187,0.00035788,0.00048226,0.00007764,-0.00034420,-0.00
 050032,0.00243122,-0.00005518,0.00003234,0.00003554,0.00019869,0.00017
 171,-0.00026160,-0.00091871,-0.00028739,-0.00028335,-0.00334141,-0.003
 58800,-0.00903109,0.21509909,0.37276784,0.,0.,0.,0.,0.,0.,-0.00030837,
 -0.00029363,0.00027657,0.00045945,0.00121795,0.00012829,0.,0.,0.,0.001
 57129,-0.00041544,-0.00052676,-0.00154282,-0.00040816,0.00041968,0.,0.
 ,0.,0.00003224,-0.00037917,-0.00100819,0.00113845,-0.00078523,0.000402
 69,-0.01786074,-0.00521675,-0.03739169,0.00232083,0.00390294,0.0042929
 0,-0.00295991,-0.00315839,0.00357349,0.00110779,0.00101156,-0.00125760
 ,0.00827746,-0.00244322,0.00402999,-0.00124557,0.00079595,-0.00459956,
 0.00025209,0.00001381,0.00036446,-0.00193547,-0.00176703,0.00547485,0.
 00351756,-0.00012839,-0.00115992,-0.00054086,-0.00001774,0.00068398,0.
 00098153,-0.00117757,-0.00392562,0.00001108,-0.00011104,-0.00011930,-0
 .00288549,0.00265428,0.00528263,-0.00015401,-0.00118311,0.00149263,-0.
 00032579,0.00377917,-0.00125214,-0.00001246,-0.00000698,-0.00009242,-0
 .01943331,-0.01481570,-0.05786938,0.01148307,-0.00196191,-0.04472082,-
 0.04428976,-0.02410353,-0.15113931,-0.00155545,-0.00034562,0.00279400,
 0.00148561,-0.00016915,0.00066373,-0.00071458,-0.00128485,-0.00174252,
 0.00031139,0.00029307,-0.00026745,-0.00083527,0.00079656,-0.00046945,0
 .00082970,-0.00080872,0.00082179,0.00081214,0.00167886,-0.00174325,-0.
 00142804,-0.00082913,-0.00080491,-0.00134562,-0.00061758,0.00286701,0.
 00003598,0.00028969,-0.00054438,0.00029845,-0.00242936,0.00164344,0.00
 030632,0.00048717,-0.00041211,-0.00016698,-0.00057614,-0.00043763,-0.0
 0029508,-0.00020190,0.00040833,0.00014025,0.00025974,-0.00001892,0.000
 63629,-0.00041665,-0.00091031,-0.00010880,0.00004647,0.00006066,-0.000
 25402,0.00010082,0.00016393,-0.00016391,-0.00042984,0.00014673,-0.0000
 5192,-0.00011669,-0.00010169,0.00024637,0.00002078,-0.00003098,0.00001
 595,0.00018971,-0.00009576,0.00148572,-0.00055903,-0.00014745,-0.00013
 595,0.00174061,0.00096391,-0.00001565,0.00053001,-0.00008916,-0.000558
 03,-0.00045293,0.00000384,-0.00005281,-0.00055438,-0.00009986,-0.00098
 832,0.00255964,-0.00080740,0.00019790,-0.00121394,-0.00024879,0.000964
 25,0.00048251,0.00016122,0.00032121,-0.00078881,0.00195188,-0.00017218
 ,0.00005102,-0.00001224,0.00420772,0.00737002,-0.00000856,0.00086695,-
 0.00012569,-0.00027780,-0.00060874,0.00004842,-0.00084343,-0.00161474,
 -0.00018283,-0.00043433,-0.00121828,0.00181618,0.00834657,-0.12833321,
 -0.04637032,0.97634363,0.,0.,0.,0.,0.,0.,0.00007888,0.00022198,-0.0000
 0867,0.00007285,0.00016615,-0.00002740,0.,0.,0.,0.00036237,-0.00010418
 ,-0.00006427,-0.00016565,-0.00003903,0.00008221,0.,0.,0.,0.00037411,-0
 .00043983,-0.00049818,-0.00016636,0.00006265,-0.00023285,-0.00755294,-
 0.00198156,-0.00607257,0.00084475,0.00069137,0.00054917,-0.00106352,-0
 .00081533,0.00171371,0.00048008,0.00026680,-0.00077589,0.00204045,-0.0
 0025794,-0.00008418,-0.00088211,0.00066495,-0.00086573,0.00016098,-0.0
 0012299,-0.00055015,0.00023043,-0.00015604,0.00141255,0.00058830,0.000
 07376,-0.00022139,-0.00000304,-0.00002664,0.00019643,0.00015022,-0.000
 31980,-0.00074767,-0.00003788,-0.00006470,-0.00007986,-0.00000900,0.00
 072119,0.00372746,0.00017788,-0.00106089,-0.00029597,-0.00033113,0.000
 69900,-0.00008430,-0.00005806,-0.00009239,-0.00001626,-0.01087309,-0.0
 1053689,0.01085510,-0.04097011,-0.00859047,-0.02780831,-0.06611359,-0.
 06288749,-0.01801567,0.00165573,0.00090938,-0.00206625,0.00524572,0.00
 134475,0.01379092,0.00262402,0.00334977,0.00650417,0.00084315,-0.00025
 866,0.00026661,-0.00045983,-0.00000791,0.00003882,-0.00081817,0.000932
 36,-0.00035840,-0.00128221,0.00045338,-0.00028305,-0.00029909,-0.00056
 729,0.00014899,0.00055535,0.00032000,-0.00005926,-0.00000033,-0.000106
 12,0.00013905,-0.00039262,0.00105768,-0.00013102,-0.00013531,-0.000359
 81,0.00012118,0.00000471,0.00010909,0.00004678,0.00015184,0.00008730,0
 .00002908,-0.00010524,-0.00010936,-0.00000318,0.00043588,0.00015144,-0
 .00009474,-0.00013891,-0.00004660,-0.00001280,0.00002681,0.00005490,0.
 00003188,-0.00004379,-0.00009609,0.00001094,-0.00002944,-0.00004683,0.
 00002919,0.00006754,-0.00000037,-0.00006195,0.00003123,0.00002488,0.00
 000131,-0.00043233,0.00010654,-0.00035629,0.00037441,0.00030905,0.0002
 9800,0.00005598,0.00006539,-0.00003782,-0.00000809,-0.00008513,0.00000
 601,-0.00002295,-0.00028126,0.00009088,-0.00062344,0.00031370,-0.00020
 986,-0.00015759,-0.00017537,-0.00007296,0.00022492,0.00064793,0.000112
 02,-0.00013924,-0.00022672,-0.00036176,-0.00013214,-0.00027128,-0.0000
 4407,0.00042821,0.00128346,-0.00055455,0.00018287,-0.00003719,-0.00006
 428,-0.00022830,-0.00014940,0.00016876,0.00066458,0.00019684,0.0002089
 8,0.00438417,0.00255846,0.00820862,-0.32538652,-0.14368692,0.12191758,
 0.43798111,0.,0.,0.,0.,0.,0.,0.00019836,0.00046387,-0.00004841,0.00000
 093,-0.00002489,-0.00008655,0.,0.,0.,0.00008444,-0.00000299,-0.0000105
 3,-0.00003945,0.00000327,0.00002663,0.,0.,0.,-0.00003783,-0.00006614,0
 .00003380,0.00006682,-0.00003733,0.00004781,-0.00244244,-0.00254428,-0
 .00191630,0.00028933,0.00056262,-0.00017069,-0.00116535,-0.00063827,0.
 00213520,0.00040540,-0.00008934,-0.00129859,0.00056648,0.00035220,0.00
 046957,0.00009217,-0.00003769,-0.00015798,0.00000935,0.00007083,0.0000
 9376,0.00012745,0.00015976,0.00041640,0.00019359,-0.00012523,-0.000042
 80,-0.00003760,0.00010536,0.00008756,0.00002910,-0.00022952,-0.0004314
 5,-0.00001275,-0.00006855,-0.00007814,0.00019214,0.00014102,-0.0003669
 3,-0.00011483,-0.00080253,0.00051114,-0.00005574,0.00015635,0.00002687
 ,-0.00001880,-0.00001497,-0.00002977,-0.00901401,-0.00841762,0.0045103
 3,-0.00197127,-0.03433370,0.01014573,-0.05842246,-0.00754996,-0.011376
 78,0.00049932,-0.00106404,-0.00187620,-0.00251990,-0.00079959,-0.01412
 173,0.00197460,0.00642164,0.00864361,0.00054684,0.00035653,0.00039283,
 -0.00075632,0.00127075,0.00022252,0.00003251,0.00068735,-0.00014233,-0
 .00042711,0.00050257,-0.00062957,-0.00010694,-0.00014785,0.00008637,0.
 00019179,0.00013764,-0.00012438,-0.00000599,-0.00003944,0.00004920,-0.
 00006198,0.00041705,-0.00005972,-0.00003866,-0.00009629,0.00004216,0.0
 0001970,0.00005172,0.00003230,0.00006087,0.00004086,0.00000901,-0.0000
 3986,-0.00005295,0.00000267,0.00015569,0.00010169,-0.00003503,-0.00004
 905,-0.00002787,-0.00000385,0.00001200,0.00001215,0.00000754,-0.000010
 04,-0.00001784,0.00000491,-0.00001283,-0.00001695,0.00001406,0.0000201
 6,0.00000097,-0.00002716,0.00001293,0.00000644,-0.00000296,-0.00009426
 ,0.00005591,-0.00009479,0.00007201,-0.00000956,0.00000501,-0.00000387,
 -0.00000660,-0.00001870,-0.00000654,-0.00002911,-0.00000169,0.00000037
 ,-0.00006406,0.00003539,-0.00011799,0.00010992,-0.00001284,-0.00004633
 ,0.00004012,0.00000563,0.00009710,0.00026290,0.00000366,-0.00012094,-0
 .00004844,-0.00026477,-0.00003406,-0.00010763,-0.00003145,0.00007207,0
 .00035343,-0.00035277,0.00008102,-0.00002269,-0.00002366,-0.00006771,-
 0.00009409,0.00012092,0.00038187,0.00011607,0.00014546,-0.00008190,0.0
 0228241,-0.00307428,-0.14877504,-0.17176756,0.07192770,0.23027546,0.19
 500985,0.,0.,0.,0.,0.,0.,0.00033646,0.00059208,-0.00013198,-0.00026285
 ,-0.00070140,-0.00012619,0.,0.,0.,-0.00090204,0.00025539,0.00026785,0.
 00078853,0.00019537,-0.00024261,0.,0.,0.,0.00036979,-0.00016083,0.0002
 8058,-0.00082170,0.00049146,-0.00039519,0.00771916,0.00228854,0.015358
 63,-0.00075337,-0.00160787,-0.00186256,0.00063953,0.00109709,-0.000209
 69,-0.00038308,-0.00084215,-0.00042519,-0.00301781,0.00113734,-0.00161
 580,0.00030865,-0.00008715,0.00184576,-0.00011149,-0.00004388,-0.00046
 397,0.00094604,0.00093392,-0.00304065,-0.00179482,0.00014690,0.0004943
 9,0.00021856,-0.00002497,-0.00028871,-0.00038634,0.00055720,0.00161990
 ,0.00000424,0.00003429,0.00004196,0.00140794,-0.00114017,-0.00044292,0
 .00046432,-0.00008974,-0.00128596,0.00017475,-0.00194358,0.00055711,0.
 00000723,-0.00000024,0.00004845,-0.00582335,-0.01076628,-0.03569293,0.
 00071625,0.02440059,0.08384718,0.00380327,0.00225981,0.02846199,-0.001
 81761,-0.00035494,0.00312082,-0.00354800,-0.00473233,-0.02040456,-0.00
 396853,-0.01017039,-0.02341826,-0.00084721,0.00053385,-0.00009621,0.00
 016799,0.00060604,0.00004152,0.00196441,-0.00183102,0.00025805,-0.0018
 6421,0.00041330,-0.00083183,0.00079936,0.00074335,0.00031373,-0.000117
 20,-0.00015495,-0.00097176,0.00004622,0.00002803,-0.00003692,-0.000026
 11,-0.00039525,-0.00036104,0.00001275,0.00013423,-0.00000978,0.0000556
 3,0.00014883,0.00010540,-0.00001342,-0.00001359,-0.00017739,0.00008148
 ,0.00000346,0.00004682,-0.00055075,-0.00006048,0.00033444,0.00015650,0
 .00003675,-0.00001538,0.00009562,-0.00008128,-0.00008704,0.00005585,0.
 00021021,-0.00005922,0.00005139,0.00007811,0.00000989,-0.00014527,-0.0
 0001130,0.00004447,-0.00002824,-0.00010532,0.00004187,-0.00036164,0.00
 007428,0.00022129,-0.00002712,-0.00063823,-0.00041550,-0.00000511,-0.0
 0023292,0.00003667,0.00020877,0.00022798,0.00000110,0.00002228,0.00019
 832,-0.00002568,0.00040659,-0.00073639,0.00033375,0.00003164,0.0002776
 1,0.00008441,-0.00041877,-0.00058035,-0.00006102,0.00006184,0.00043022
 ,-0.00021993,0.00007251,0.00012105,-0.00000184,-0.00125291,-0.00284492
 ,0.00020953,-0.00039729,0.00006549,0.00012978,0.00036403,0.00012726,0.
 00005222,-0.00018786,-0.00019425,-0.00004691,-0.00366945,-0.00995351,-
 0.02904762,0.10876353,0.05940662,-0.18295358,-0.16214603,-0.08704883,0
 .24440794,0.,0.,0.,0.,0.,0.,0.00005463,0.00012569,-0.00012686,-0.00003
 163,-0.00009181,-0.00004606,0.,0.,0.,0.00038121,0.00015576,-0.00014555
 ,0.00009023,0.00000259,0.00002040,0.,0.,0.,-0.00012124,0.00005404,0.00
 007109,-0.00057902,0.00042412,-0.00028961,-0.02342040,-0.00627396,-0.0
 2349528,0.00094852,-0.00042759,-0.00098539,-0.00012969,0.00029970,0.00
 042888,0.00011728,-0.00012285,-0.00014232,-0.00372383,0.00157509,-0.00
 509510,-0.00038754,0.00019575,0.00270735,0.00012754,-0.00013126,-0.000
 70244,0.00104940,-0.00026770,0.00064607,-0.00024382,0.00101637,-0.0005
 1100,0.00019345,-0.00041872,0.00053001,-0.00027372,-0.00027689,0.00041
 992,-0.00008546,-0.00002857,-0.00007291,0.00183598,-0.00114490,-0.0006
 1762,0.00045116,-0.00024969,-0.00029598,-0.00041638,-0.00013614,0.0002
 5304,-0.00002536,-0.00014907,0.00002865,-0.00257772,-0.00588718,0.0065
 8781,-0.00254788,-0.00866471,-0.01820601,0.01129471,-0.00391147,-0.047
 10596,0.00051182,0.00018491,-0.00064358,0.00043138,0.00030769,0.001042
 50,0.00080036,0.00134818,0.00199045,0.00030822,-0.00001975,0.00018056,
 -0.00035581,0.00009534,0.00005357,-0.00031648,0.00038220,-0.00012168,0
 .00067297,0.00082199,-0.00144886,-0.00072921,-0.00106228,0.00035054,0.
 00007213,0.00007404,0.00045696,0.00000663,-0.00000802,-0.00005159,-0.0
 0020112,0.00035616,0.00003761,-0.00003486,-0.00021539,-0.00007355,-0.0
 0000587,0.00000610,-0.00002347,0.00011187,0.00004043,0.00010788,-0.000
 01585,-0.00005246,0.00001852,0.00056639,-0.00022417,-0.00032140,-0.000
 12827,0.00000422,-0.00002582,0.00005522,0.00009812,0.00006198,-0.00013
 610,-0.00023193,0.00004634,-0.00000531,-0.00005637,0.00001831,0.000079
 60,-0.00000558,-0.00010253,0.00003103,-0.00000544,0.00001931,-0.001082
 95,0.00042171,-0.00040757,0.00043794,-0.00013184,0.00003734,0.00003936
 ,0.00006489,-0.00005729,0.00025277,-0.00004172,-0.00000044,0.00003119,
 -0.00005510,0.00001882,-0.00079762,-0.00004883,0.00012729,-0.00006456,
 0.00004001,-0.00003841,0.00047042,-0.00052321,0.00052262,0.00043748,-0
 .00016067,0.00019448,-0.00041339,-0.00047966,-0.00005166,-0.00209933,0
 .00068276,-0.00066852,0.00053601,-0.00005328,-0.00033389,-0.00028629,-
 0.00020859,-0.00000717,0.00027334,0.00029732,0.00018269,0.00128129,0.0
 0153015,0.00307963,-0.10352417,-0.00996932,0.06653257,-0.00253978,-0.0
 1062637,0.06494305,0.12409395,0.,0.,0.,0.,0.,0.,0.00021026,0.00020992,
 -0.00021026,-0.00009658,-0.00032154,-0.00009200,0.,0.,0.,0.00003038,-0
 .00006876,0.00006008,-0.00001263,0.00006029,0.00000902,0.,0.,0.,-0.000
 10688,-0.00003930,0.00007120,0.00009875,-0.00012519,0.00008078,-0.0053
 4722,-0.00854627,-0.00693100,-0.00115022,-0.00080086,-0.00307634,0.000
 51882,0.00097135,0.00012773,-0.00015594,-0.00022912,-0.00012879,0.0015
 2206,0.00101153,0.00046878,0.00038880,0.00014301,-0.00053919,-0.000029
 99,0.00013184,0.00020433,-0.00017658,0.00112383,0.00110609,0.00043624,
 -0.00123485,0.00062887,-0.00002117,0.00063091,-0.00044762,-0.00069388,
 -0.00012307,0.00126745,-0.00004383,-0.00008714,-0.00011211,-0.00021547
 ,0.00029447,0.00030322,-0.00022770,-0.00037189,0.00031711,0.00007617,0
 .00033237,0.00003994,-0.00010944,-0.00002704,-0.00014442,-0.00535009,0
 .00095751,0.00571590,-0.00384733,-0.00206197,-0.01386543,-0.00270448,0
 .01396396,-0.03430844,0.00073135,-0.00006696,-0.00235456,0.00079513,0.
 00008062,0.00209263,0.00036642,0.00032531,0.00070630,0.00018261,-0.000
 10911,0.00010360,-0.00002405,0.00009507,0.00006525,-0.00057880,0.00066
 891,-0.00013551,0.00008624,-0.00001838,-0.00014164,-0.00120321,-0.0007
 4470,0.00033714,0.00012563,0.00020142,0.00050672,0.00003193,-0.0000571
 9,0.00001688,0.00007901,0.00014731,0.00031448,0.00000944,-0.00003495,-
 0.00002762,-0.00002058,-0.00002241,-0.00003971,-0.00002485,0.00001267,
 0.00005918,-0.00007655,-0.00002167,-0.00001022,0.00068390,-0.00000409,
 -0.00044687,-0.00014496,-0.00009199,-0.00002078,-0.00007935,0.00001131
 ,0.00004546,-0.00015428,-0.00018335,0.00007719,-0.00003466,-0.00005493
 ,0.00003165,0.00007786,-0.00000818,-0.00010315,0.00003572,0.00002556,-
 0.00005088,0.00035880,-0.00014051,-0.00039583,0.00039411,0.00083733,0.
 00077217,-0.00007447,-0.00000912,-0.00014859,-0.00030856,-0.00022273,0
 .00006132,-0.00002281,-0.00075052,0.00005174,-0.00058083,-0.00029247,-
 0.00081044,-0.00004656,-0.00030462,-0.00007126,0.00034978,-0.00062949,
 0.00059099,0.00007310,-0.00070348,0.00025926,-0.00058156,-0.00055532,-
 0.00009663,-0.00070245,-0.00072513,-0.00055394,-0.00011301,-0.00003075
 ,0.00007233,-0.00044277,0.00019371,-0.00020196,0.00002945,0.00000504,-
 0.00014195,0.00078519,0.00097349,0.00303331,-0.00987005,-0.08690151,0.
 01359878,-0.01465216,0.01887535,0.03834906,0.04150155,0.06446755,0.,0.
 ,0.,0.,0.,0.,0.00023816,0.00013020,-0.00031506,-0.00040955,-0.00108144
 ,-0.00009958,0.,0.,0.,-0.00145343,0.00150973,0.00023897,0.00169000,0.0
 0043061,-0.00041490,0.,0.,0.,-0.00019769,0.00040595,0.00108017,-0.0009
 2803,0.00066876,-0.00028422,-0.01875900,-0.00827922,-0.02912883,-0.002
 71648,-0.00428933,-0.00416782,0.00252360,0.00234210,-0.00394477,-0.000
 81306,-0.00057451,0.00136369,-0.00901752,0.00228035,-0.00467822,0.0011
 6867,-0.00096763,0.00431631,-0.00027962,0.00004671,-0.00014919,0.00254
 187,0.00373100,-0.01188826,-0.00542092,0.00094254,0.00085282,0.0008262
 0,-0.00049105,-0.00039190,-0.00094421,0.00098391,0.00352475,-0.0000416
 4,0.00014943,0.00012261,0.00201474,-0.00185687,-0.00517860,-0.00039981
 ,0.00084312,-0.00062220,0.00064846,-0.00577780,0.00112606,-0.00005691,
 0.00005108,-0.00010102,-0.00832509,-0.00805587,0.01266094,0.00354043,0
 .00996312,0.03036666,-0.02386163,-0.02134770,-0.09356500,0.00157955,-0
 .00037586,-0.00354898,-0.00129661,0.00001962,-0.00277351,-0.00018692,-
 0.00159805,-0.00245053,-0.00033875,-0.00016165,0.00027498,0.00028682,0
 .00012420,0.00030981,-0.00060055,0.00094857,-0.00037910,0.00007959,0.0
 0126233,-0.00344360,0.00097416,0.00065633,0.00079924,0.00077937,0.0005
 5436,-0.00190602,-0.00005387,-0.00022985,0.00031985,-0.00005017,0.0012
 8689,-0.00077959,-0.00016152,-0.00025082,0.00023171,0.00011365,0.00037
 588,0.00027799,0.00017348,0.00011681,-0.00026460,-0.00008939,-0.000166
 46,0.00001473,-0.00033772,0.00030353,0.00046457,0.00006631,-0.00005385
 ,-0.00004907,0.00016436,-0.00006963,-0.00008699,0.00007464,0.00025152,
 -0.00006662,0.00004257,0.00007995,0.00008728,-0.00019574,-0.00002373,-
 0.00004894,0.00000192,-0.00017809,0.00004868,-0.00084180,0.00032228,-0
 .00008517,0.00010793,-0.00095028,-0.00008025,-0.00005652,-0.00048670,-
 0.00003287,0.00031959,0.00026356,0.00004904,0.00005257,0.00009264,0.00
 006951,0.00046796,-0.00091006,-0.00061330,-0.00013615,0.00092659,0.000
 19443,-0.00022750,0.00006349,0.00076806,0.00010990,0.00051898,-0.00107
 148,-0.00037341,-0.00051347,-0.00012673,-0.00142304,-0.00227629,-0.002
 17430,-0.00045976,0.00010507,-0.00005403,0.00035633,-0.00011174,0.0004
 8897,0.00085856,0.00019634,0.00042363,0.00049868,-0.00229105,-0.008949
 59,0.05252712,0.01054536,-0.52611093,0.05391418,0.02375586,-0.07567135
 ,-0.04875937,-0.00552533,0.72594641\\0.,0.,0.,0.,0.,0.,0.,0.,0.,0.,0.,
 0.,0.,0.,0.,0.,0.,0.,0.,0.,0.,0.,0.,0.,0.,0.,0.,0.,0.,0.,0.,0.,0.,0.,0
 .,0.,0.,0.,0.,0.,0.,0.,0.,0.,0.,0.,0.,0.,0.,0.,0.,0.,0.,0.,0.,0.,0.,0.
 ,0.,0.,0.,0.,0.,0.,0.,0.,0.,0.,0.,0.,0.,0.,0.,0.,0.,0.,0.,0.,0.,0.,0.,
 0.,0.,0.,0.,0.,0.,0.,0.,0.,0.,0.,0.,0.,0.,0.,0.,0.,0.,0.,0.,0.,0.,0.,0
 .,0.,0.,0.,0.00000001,0.,0.,0.,0.,0.,0.,0.,0.,0.,0.00000001,0.,0.,0.,0
 .,0.,0.,0.,0.,0.,0.,0.,0.,0.,0.,0.,0.,0.,0.,0.,0.,0.,0.,0.,-0.00000001
 ,0.,-0.00000002,-0.00000001,0.,0.,0.00000001,0.,0.00000001,-0.00000001
 ,0.00000001,0.00000001,0.,0.,0.,0.,0.,0.,0.,0.,0.,0.,0.,0.,0.,0.,0.,0.
 ,0.,0.,0.,0.,0.,0.,0.,0.,0.,0.,0.,0.,0.00000002,0.00000001,0.00000001,
 0.,0.,0.00000003,0.00000002,-0.00000002,-0.00000001,0.,0.,0.,-0.000000
 02,0.,0.,0.,0.,0.,0.,0.,0.,0.,0.,0.,0.\\\@


 NOTHING MAKES A PERSON MORE PRODUCTIVE THAN THE LAST MINUTE.
 Job cpu time:       2 days 17 hours 51 minutes 42.8 seconds.
 Elapsed time:       0 days  1 hours  3 minutes 32.9 seconds.
 File lengths (MBytes):  RWF=   4358 Int=      0 D2E=      0 Chk=     44 Scr=      1
 Normal termination of Gaussian 16 at Thu Dec 19 10:51:17 2019.
