 Entering Gaussian System, Link 0=g16
 Input=Zn_PC_TEABr_opt_freq3.com
 Output=Zn_PC_TEABr_opt_freq3.log
 Initial command:
 /apps/commercial/G16/g16.linda/l1.exe "/scratch/x1711a05/Gau-18208.inp" -scrdir="/scratch/x1711a05/"
 Default linda workers: node6337
 Entering Link 1 = /apps/commercial/G16/g16.linda/l1.exe PID=     18209.
  
 Copyright (c) 1988,1990,1992,1993,1995,1998,2003,2009,2016,
            Gaussian, Inc.  All Rights Reserved.
  
 This is part of the Gaussian(R) 16 program.  It is based on
 the Gaussian(R) 09 system (copyright 2009, Gaussian, Inc.),
 the Gaussian(R) 03 system (copyright 2003, Gaussian, Inc.),
 the Gaussian(R) 98 system (copyright 1998, Gaussian, Inc.),
 the Gaussian(R) 94 system (copyright 1995, Gaussian, Inc.),
 the Gaussian 92(TM) system (copyright 1992, Gaussian, Inc.),
 the Gaussian 90(TM) system (copyright 1990, Gaussian, Inc.),
 the Gaussian 88(TM) system (copyright 1988, Gaussian, Inc.),
 the Gaussian 86(TM) system (copyright 1986, Carnegie Mellon
 University), and the Gaussian 82(TM) system (copyright 1983,
 Carnegie Mellon University). Gaussian is a federally registered
 trademark of Gaussian, Inc.
  
 This software contains proprietary and confidential information,
 including trade secrets, belonging to Gaussian, Inc.
  
 This software is provided under written license and may be
 used, copied, transmitted, or stored only in accord with that
 written license.
  
 The following legend is applicable only to US Government
 contracts under FAR:
  
                    RESTRICTED RIGHTS LEGEND
  
 Use, reproduction and disclosure by the US Government is
 subject to restrictions as set forth in subparagraphs (a)
 and (c) of the Commercial Computer Software - Restricted
 Rights clause in FAR 52.227-19.
  
 Gaussian, Inc.
 340 Quinnipiac St., Bldg. 40, Wallingford CT 06492
  
  
 ---------------------------------------------------------------
 Warning -- This program may not be used in any manner that
 competes with the business of Gaussian, Inc. or will provide
 assistance to any competitor of Gaussian, Inc.  The licensee
 of this program is prohibited from giving any competitor of
 Gaussian, Inc. access to this program.  By using this program,
 the user acknowledges that Gaussian, Inc. is engaged in the
 business of creating and licensing software in the field of
 computational chemistry and represents and warrants to the
 licensee that it is not a competitor of Gaussian, Inc. and that
 it will not use this program in any manner prohibited above.
 ---------------------------------------------------------------
  

 Cite this work as:
 Gaussian 16, Revision A.03,
 M. J. Frisch, G. W. Trucks, H. B. Schlegel, G. E. Scuseria, 
 M. A. Robb, J. R. Cheeseman, G. Scalmani, V. Barone, 
 G. A. Petersson, H. Nakatsuji, X. Li, M. Caricato, A. V. Marenich, 
 J. Bloino, B. G. Janesko, R. Gomperts, B. Mennucci, H. P. Hratchian, 
 J. V. Ortiz, A. F. Izmaylov, J. L. Sonnenberg, D. Williams-Young, 
 F. Ding, F. Lipparini, F. Egidi, J. Goings, B. Peng, A. Petrone, 
 T. Henderson, D. Ranasinghe, V. G. Zakrzewski, J. Gao, N. Rega, 
 G. Zheng, W. Liang, M. Hada, M. Ehara, K. Toyota, R. Fukuda, 
 J. Hasegawa, M. Ishida, T. Nakajima, Y. Honda, O. Kitao, H. Nakai, 
 T. Vreven, K. Throssell, J. A. Montgomery, Jr., J. E. Peralta, 
 F. Ogliaro, M. J. Bearpark, J. J. Heyd, E. N. Brothers, K. N. Kudin, 
 V. N. Staroverov, T. A. Keith, R. Kobayashi, J. Normand, 
 K. Raghavachari, A. P. Rendell, J. C. Burant, S. S. Iyengar, 
 J. Tomasi, M. Cossi, J. M. Millam, M. Klene, C. Adamo, R. Cammi, 
 J. W. Ochterski, R. L. Martin, K. Morokuma, O. Farkas, 
 J. B. Foresman, and D. J. Fox, Gaussian, Inc., Wallingford CT, 2016.
 
 ******************************************
 Gaussian 16:  ES64L-G16RevA.03 25-Dec-2016
                18-Dec-2019 
 ******************************************
 %nprocshared=64
 Will use up to   64 processors via shared memory.
 %mem=64GB
 %chk=Zn_PC_TEABr_opt_freq3.chk
 SetLPE:    new flags="-opt 'Tsnet.Node.lindarsharg: ssh'  -nodelist 'node6337' -env GAUSS_MDEF=8589934592 -env GAUSS_EXEDIR="/apps/commercial/G16/g16.linda""
 Will use up to    1 processors via Linda.
 ----------------------------------------------------------------------
 # opt=(calcall,tight,cartesian) freq cam-b3lyp/gen nosymm scf=(qc,maxc
 ycle=1024,vshift=100) pseudo=read
 ----------------------------------------------------------------------
 1/7=10,10=4,18=10,26=3,38=1/1,3;
 2/12=2,15=1,17=6,18=5,29=2,40=1/2;
 3/5=7,11=2,16=1,17=8,25=1,30=1,71=2,74=-40,140=1/1,2,3;
 4//1;
 5/5=2,7=1024,8=3,10=100,38=5/8;
 8/6=4,10=90,11=11/1;
 11/6=1,8=1,9=11,15=111,16=1,31=1/1,2,10;
 10/6=1,31=1/2;
 6/7=2,8=2,9=2,10=2,18=1,28=1/1;
 7/7=1,10=1,25=1,30=1/1,2,3,16;
 1/7=10,10=4,18=10,26=3/3(3);
 2/15=1,29=1/2;
 7/7=1,8=1,9=1,25=1,30=1,44=-1/16;
 99/12=1/99;
 2/15=1,29=1/2;
 3/5=7,6=1,11=2,16=1,17=8,25=1,30=1,71=2,74=-40,82=7,140=1/1,2,3;
 4/5=5,16=3,69=1/1;
 5/5=2,7=1024,8=3,10=100,38=5/8;
 8/6=4,10=90,11=11/1;
 11/6=1,8=1,9=11,15=111,16=1,31=1/1,2,10;
 10/6=1,31=1/2;
 7/7=1,10=1,25=1,30=1/1,2,3,16;
 1/7=10,10=4,18=10,26=3/3(-8);
 2/15=1,29=1/2;
 6/7=2,8=2,9=2,10=2,18=1,19=2,28=1/1;
 7/7=1,8=1,9=1,25=1,30=1,44=-1/16;
 99/12=1/99;
 ---------------------
 Zn_PC_TEABr_opt_freq3
 ---------------------
 Symbolic Z-matrix:
 Charge =  0 Multiplicity = 1
 Li                   -1   -0.65617  -5.03839  -3.45744 
 N                    -1   -0.28279  -3.67558  -2.19468 
 C                    0    -1.18148  -3.93365  -1.20096 
 Cl                   0    -2.1409   -5.37812  -1.31737 
 N                    -1    2.32823   2.59905  -2.41943 
 C                    0     3.29579   1.66858  -2.22643 
 Cl                   0     4.91025   1.86719  -2.8132 
 N                    -1   -3.32748   2.07508   1.06573 
 C                    0    -3.65986   1.65508  -0.1761 
 Cl                   0    -5.20432   1.97064  -0.88753 
 Zn                   0     0.12725  -0.06281  -0.0408 
 N                    0    -0.22191  -2.02229  -0.68998 
 C                    0    -1.15537  -2.93127  -0.2772 
 Cl                   0    -2.07223  -2.74979   1.15371 
 N                    0    -1.58344   0.96182   0.16302 
 C                    0    -2.61246   0.9771   -0.73909 
 Cl                   0    -2.48213   0.24334  -2.30023 
 N                    0     1.46633   0.8346   -1.29542 
 C                    0     2.78705   0.59439  -1.54003 
 Cl                   0     3.57124  -0.86059  -1.04842 
 C                    0     0.26507  -2.50947  -1.83447 
 H                    0     1.02699  -2.00119  -2.40749 
 C                    0    -2.08763   1.64258   1.2308 
 H                    0    -1.50255   1.82439   2.12534 
 C                    0     1.2566    2.05086  -1.85605 
 H                    0     0.28216   2.5213   -1.83342 
 C                    0     1.10248  -0.42014   5.1214 
 C                    0    -0.38283  -0.44711   4.71825 
 O                    0     1.7802   -0.42466   3.83697 
 C                    0     1.57461  -1.60016   5.9379 
 H                    0    -0.90046   0.46105   5.02372 
 H                    0    -0.90644  -1.34849   5.04338 
 H                    0     2.65303  -1.54996   6.10084 
 H                    0     1.33864  -2.5442    5.43892 
 H                    0     1.08205  -1.5909    6.91421 
 H                    0     1.34395   0.54133   5.57591 
 N                    0     2.60262   4.74232   1.16254 
 C                    0     2.18696   5.41494   2.46945 
 C                    0     3.28379   5.74007   3.47106 
 H                    0     1.45772   4.74611   2.93613 
 H                    0     1.68738   6.34033   2.17425 
 H                    0     2.77837   6.08851   4.37501 
 H                    0     3.87566   4.87152   3.75569 
 H                    0     3.95324   6.53687   3.13977 
 C                    0     3.90815   5.3266    0.67866 
 C                    0     4.47876   4.72824  -0.59586 
 H                    0     4.62383   5.20491   1.48863 
 H                    0     3.72426   6.3981    0.56275 
 H                    0     5.36256   5.31241  -0.865 
 H                    0     4.803     3.69663  -0.45665 
 H                    0     3.79457   4.74821  -1.44438 
 C                    0     1.53142   5.05413   0.12438 
 C                    0     0.11021   4.67286   0.50461 
 H                    0     1.82389   4.53493  -0.78804 
 H                    0     1.60469   6.13062  -0.05054 
 H                    0    -0.53912   4.99992  -0.31172 
 H                    0    -0.03051   3.59844   0.61646 
 H                    0    -0.23999   5.15122   1.41913 
 C                    0     2.67703   3.22645   1.29961 
 C                    0     3.73352   2.67784   2.23873 
 H                    0     2.81213   2.84843   0.28674 
 H                    0     1.70531   2.91515   1.68257 
 H                    0     3.73837   1.59438   2.09545 
 H                    0     4.7441    3.04249   2.03733 
 H                    0     3.45859   2.85149   3.27932 
 Br                   0     0.48517   2.75044   4.09446 
 C                    0     0.89692  -0.34415   2.86868 
 O                    0    -0.34841  -0.45824   3.27882 
 O                    0     1.21548  -0.24688   1.68856 
 

 GradGradGradGradGradGradGradGradGradGradGradGradGradGradGradGradGradGrad
 Berny optimization.
 Initialization pass.
 No Z-matrix variables, so optimization will use Cartesian coordinates.
 Trust Radius=3.00D-01 FncErr=1.00D-07 GrdErr=1.00D-06 EigMax=2.50D+02 EigMin=1.00D-04
 Number of steps in this run=    217 maximum allowed number of steps=    414.
 GradGradGradGradGradGradGradGradGradGradGradGradGradGradGradGradGradGrad

 Symmetry turned off by external request.
 Stoichiometry    C21H29BrCl6LiN7O3Zn
 Framework group  C1[X(C21H29BrCl6LiN7O3Zn)]
 Deg. of freedom   201
 Full point group                 C1      NOp   1
                          Input orientation:                          
 ---------------------------------------------------------------------
 Center     Atomic      Atomic             Coordinates (Angstroms)
 Number     Number       Type             X           Y           Z
 ---------------------------------------------------------------------
      1          3           0       -0.656174   -5.038394   -3.457440
      2          7           0       -0.282792   -3.675582   -2.194684
      3          6           0       -1.181483   -3.933651   -1.200958
      4         17           0       -2.140897   -5.378121   -1.317367
      5          7           0        2.328228    2.599049   -2.419433
      6          6           0        3.295792    1.668584   -2.226435
      7         17           0        4.910250    1.867187   -2.813203
      8          7           0       -3.327483    2.075083    1.065729
      9          6           0       -3.659862    1.655081   -0.176098
     10         17           0       -5.204320    1.970644   -0.887526
     11         30           0        0.127253   -0.062808   -0.040802
     12          7           0       -0.221908   -2.022294   -0.689981
     13          6           0       -1.155373   -2.931271   -0.277199
     14         17           0       -2.072227   -2.749790    1.153707
     15          7           0       -1.583441    0.961820    0.163018
     16          6           0       -2.612461    0.977102   -0.739094
     17         17           0       -2.482133    0.243337   -2.300229
     18          7           0        1.466327    0.834599   -1.295423
     19          6           0        2.787045    0.594389   -1.540029
     20         17           0        3.571243   -0.860586   -1.048423
     21          6           0        0.265069   -2.509473   -1.834471
     22          1           0        1.026988   -2.001187   -2.407488
     23          6           0       -2.087626    1.642581    1.230802
     24          1           0       -1.502553    1.824388    2.125337
     25          6           0        1.256599    2.050860   -1.856047
     26          1           0        0.282157    2.521303   -1.833421
     27          6           0        1.102477   -0.420135    5.121404
     28          6           0       -0.382830   -0.447105    4.718249
     29          8           0        1.780204   -0.424660    3.836966
     30          6           0        1.574610   -1.600157    5.937900
     31          1           0       -0.900460    0.461053    5.023717
     32          1           0       -0.906436   -1.348494    5.043383
     33          1           0        2.653031   -1.549955    6.100838
     34          1           0        1.338644   -2.544198    5.438922
     35          1           0        1.082048   -1.590900    6.914206
     36          1           0        1.343949    0.541330    5.575908
     37          7           0        2.602619    4.742316    1.162536
     38          6           0        2.186963    5.414937    2.469454
     39          6           0        3.283794    5.740074    3.471058
     40          1           0        1.457715    4.746107    2.936131
     41          1           0        1.687382    6.340329    2.174246
     42          1           0        2.778368    6.088512    4.375006
     43          1           0        3.875662    4.871521    3.755685
     44          1           0        3.953239    6.536870    3.139768
     45          6           0        3.908147    5.326598    0.678656
     46          6           0        4.478756    4.728243   -0.595856
     47          1           0        4.623831    5.204915    1.488629
     48          1           0        3.724260    6.398100    0.562750
     49          1           0        5.362557    5.312408   -0.865004
     50          1           0        4.802998    3.696627   -0.456645
     51          1           0        3.794569    4.748210   -1.444381
     52          6           0        1.531419    5.054133    0.124381
     53          6           0        0.110205    4.672863    0.504614
     54          1           0        1.823894    4.534935   -0.788041
     55          1           0        1.604685    6.130618   -0.050536
     56          1           0       -0.539122    4.999923   -0.311722
     57          1           0       -0.030506    3.598444    0.616456
     58          1           0       -0.239987    5.151222    1.419132
     59          6           0        2.677031    3.226454    1.299614
     60          6           0        3.733524    2.677839    2.238732
     61          1           0        2.812128    2.848433    0.286744
     62          1           0        1.705305    2.915150    1.682566
     63          1           0        3.738373    1.594375    2.095449
     64          1           0        4.744103    3.042494    2.037326
     65          1           0        3.458585    2.851485    3.279316
     66         35           0        0.485169    2.750442    4.094464
     67          6           0        0.896915   -0.344148    2.868684
     68          8           0       -0.348412   -0.458244    3.278819
     69          8           0        1.215483   -0.246878    1.688563
 ---------------------------------------------------------------------
 Rotational constants (GHZ):           0.0684760           0.0464610           0.0417818
 General basis read from cards:  (5D, 7F)
 ======================================================================================================
                                       Pseudopotential Parameters
 ======================================================================================================
  Center     Atomic      Valence      Angular      Power
  Number     Number     Electrons     Momentum     of R      Exponent        Coefficient   SO-Coeffient
 ======================================================================================================
    1          3
                                   No pseudopotential on this center.
    2          7
                                   No pseudopotential on this center.
    3          6
                                   No pseudopotential on this center.
    4         17
                                   No pseudopotential on this center.
    5          7
                                   No pseudopotential on this center.
    6          6
                                   No pseudopotential on this center.
    7         17
                                   No pseudopotential on this center.
    8          7
                                   No pseudopotential on this center.
    9          6
                                   No pseudopotential on this center.
   10         17
                                   No pseudopotential on this center.
   11         30           12
                                      F and up 
                                                     1      386.7379660      -18.00000000    0.00000000
                                                     2       72.8587359     -124.35274030    0.00000000
                                                     2       15.9066170      -30.66018220    0.00000000
                                                     2        4.3502340      -10.63589890    0.00000000
                                                     2        1.2842199       -0.76836230    0.00000000
                                      S - F
                                                     0       19.0867858        3.00000000    0.00000000
                                                     1        5.0231080       22.52342250    0.00000000
                                                     2        1.2701744       48.44659420    0.00000000
                                                     2        1.0671287      -44.55601190    0.00000000
                                                     2        0.9264190       12.99839580    0.00000000
                                      P - F
                                                     0       43.4927750        5.00000000    0.00000000
                                                     1       20.8692669       20.74355890    0.00000000
                                                     2       21.7118378       90.30271580    0.00000000
                                                     2        6.3616915       74.66103160    0.00000000
                                                     2        1.2291195        9.88944240    0.00000000
                                      D - F
                                                     2       13.5851800       -4.84903590    0.00000000
                                                     2        9.8373050        3.69133790    0.00000000
                                                     2        0.8373113       -0.50373190    0.00000000
   12          7
                                   No pseudopotential on this center.
   13          6
                                   No pseudopotential on this center.
   14         17
                                   No pseudopotential on this center.
   15          7
                                   No pseudopotential on this center.
   16          6
                                   No pseudopotential on this center.
   17         17
                                   No pseudopotential on this center.
   18          7
                                   No pseudopotential on this center.
   19          6
                                   No pseudopotential on this center.
   20         17
                                   No pseudopotential on this center.
   21          6
                                   No pseudopotential on this center.
   22          1
                                   No pseudopotential on this center.
   23          6
                                   No pseudopotential on this center.
   24          1
                                   No pseudopotential on this center.
   25          6
                                   No pseudopotential on this center.
   26          1
                                   No pseudopotential on this center.
   27          6
                                   No pseudopotential on this center.
   28          6
                                   No pseudopotential on this center.
   29          8
                                   No pseudopotential on this center.
   30          6
                                   No pseudopotential on this center.
   31          1
                                   No pseudopotential on this center.
   32          1
                                   No pseudopotential on this center.
   33          1
                                   No pseudopotential on this center.
   34          1
                                   No pseudopotential on this center.
   35          1
                                   No pseudopotential on this center.
   36          1
                                   No pseudopotential on this center.
   37          7
                                   No pseudopotential on this center.
   38          6
                                   No pseudopotential on this center.
   39          6
                                   No pseudopotential on this center.
   40          1
                                   No pseudopotential on this center.
   41          1
                                   No pseudopotential on this center.
   42          1
                                   No pseudopotential on this center.
   43          1
                                   No pseudopotential on this center.
   44          1
                                   No pseudopotential on this center.
   45          6
                                   No pseudopotential on this center.
   46          6
                                   No pseudopotential on this center.
   47          1
                                   No pseudopotential on this center.
   48          1
                                   No pseudopotential on this center.
   49          1
                                   No pseudopotential on this center.
   50          1
                                   No pseudopotential on this center.
   51          1
                                   No pseudopotential on this center.
   52          6
                                   No pseudopotential on this center.
   53          6
                                   No pseudopotential on this center.
   54          1
                                   No pseudopotential on this center.
   55          1
                                   No pseudopotential on this center.
   56          1
                                   No pseudopotential on this center.
   57          1
                                   No pseudopotential on this center.
   58          1
                                   No pseudopotential on this center.
   59          6
                                   No pseudopotential on this center.
   60          6
                                   No pseudopotential on this center.
   61          1
                                   No pseudopotential on this center.
   62          1
                                   No pseudopotential on this center.
   63          1
                                   No pseudopotential on this center.
   64          1
                                   No pseudopotential on this center.
   65          1
                                   No pseudopotential on this center.
   66         35
                                   No pseudopotential on this center.
   67          6
                                   No pseudopotential on this center.
   68          8
                                   No pseudopotential on this center.
   69          8
                                   No pseudopotential on this center.
 ======================================================================================================
   747 basis functions,  1533 primitive gaussians,   789 cartesian basis functions
   190 alpha electrons      190 beta electrons
       nuclear repulsion energy      7477.2641726991 Hartrees.
 NAtoms=   69 NActive=   69 NUniq=   69 SFac= 1.00D+00 NAtFMM=   60 NAOKFM=T Big=T
 Integral buffers will be    131072 words long.
 Raffenetti 2 integral format.
 Two-electron integral symmetry is turned off.
 One-electron integrals computed using PRISM.
   1 Symmetry operations used in ECPInt.
 ECPInt:  NShTT=   34716 NPrTT=  206045 LenC2=   25871 LenP2D=   78645.
 LDataN:  DoStor=T MaxTD1= 5 Len=  102
 NBasis=   747 RedAO= T EigKep=  1.36D-03  NBF=   747
 NBsUse=   747 1.00D-06 EigRej= -1.00D+00 NBFU=   747
 ExpMin= 3.51D-02 ExpMax= 5.74D+05 ExpMxC= 5.74D+03 IAcc=3 IRadAn=         5 AccDes= 0.00D+00
 Harris functional with IExCor=20419 and IRadAn=       5 diagonalized for initial guess.
 HarFok:  IExCor=20419 AccDes= 0.00D+00 IRadAn=         5 IDoV= 1 UseB2=F ITyADJ=14
 ICtDFT=  3500011 ScaDFX=  1.000000  1.000000  1.000000  1.000000
 FoFCou: FMM=F IPFlag=           0 FMFlag=      100000 FMFlg1=        2001
         NFxFlg=           0 DoJE=T BraDBF=F KetDBF=T FulRan=T
         wScrn=  0.000000 ICntrl=       500 IOpCl=  0 I1Cent=   200000004 NGrid=           0
         NMat0=    1 NMatS0=      1 NMatT0=    0 NMatD0=    1 NMtDS0=    0 NMtDT0=    0
 Symmetry not used in FoFCou.
 Gradient too large for Newton-Raphson -- use scaled steepest descent instead.
 Gradient too large for Newton-Raphson -- use scaled steepest descent instead.
 Gradient too large for Newton-Raphson -- use scaled steepest descent instead.
 Gradient too large for Newton-Raphson -- use scaled steepest descent instead.
     Accept linear search using points  1 and  2.
     Minimum is close to point  2 DX= -4.12D-02 DF= -2.60D-06 DXR=  6.25D-02 DFR=  1.55D-03 which will be used.
 Gradient too large for Newton-Raphson -- use scaled steepest descent instead.
     Accept linear search using points  1 and  2.
     Minimum is close to point  2 DX= -2.57D-02 DF= -2.50D-07 DXR=  3.81D-02 DFR=  5.53D-04 which will be used.
 Gradient too large for Newton-Raphson -- use scaled steepest descent instead.
     Minimum is close to point  2 DX=  9.48D-03 DF= -2.43D-08 DXR=  1.34D-02 DFR=  1.79D-04 which will be used.
 LinEq1:  Iter=  0 NonCon=     1 RMS=2.49D-05 Max=2.49D-03 NDo=     1
 AX will form     1 AO Fock derivatives at one time.
 LinEq1:  Iter=  1 NonCon=     1 RMS=1.89D-05 Max=1.42D-03 NDo=     1
 LinEq1:  Iter=  2 NonCon=     1 RMS=3.56D-06 Max=2.68D-04 NDo=     1
 LinEq1:  Iter=  3 NonCon=     1 RMS=2.83D-06 Max=1.35D-04 NDo=     1
 LinEq1:  Iter=  4 NonCon=     1 RMS=7.34D-07 Max=5.75D-05 NDo=     1
 LinEq1:  Iter=  5 NonCon=     1 RMS=4.84D-07 Max=3.56D-05 NDo=     1
 LinEq1:  Iter=  6 NonCon=     1 RMS=2.69D-07 Max=1.56D-05 NDo=     1
 LinEq1:  Iter=  7 NonCon=     1 RMS=1.08D-07 Max=3.78D-06 NDo=     1
 LinEq1:  Iter=  8 NonCon=     1 RMS=5.78D-08 Max=4.02D-06 NDo=     1
 LinEq1:  Iter=  9 NonCon=     1 RMS=3.15D-08 Max=2.61D-06 NDo=     1
 LinEq1:  Iter= 10 NonCon=     1 RMS=1.78D-08 Max=8.92D-07 NDo=     1
 LinEq1:  Iter= 11 NonCon=     1 RMS=8.55D-09 Max=4.89D-07 NDo=     1
 LinEq1:  Iter= 12 NonCon=     0 RMS=4.29D-09 Max=1.72D-07 NDo=     1
 Linear equations converged to 4.601D-08 4.601D-07 after    12 iterations.
     Accept linear search using points  1 and  2.
     Minimum is close to point  2 DX= -1.61D-04 DF= -1.82D-12 DXR=  1.61D-04 DFR=  2.66D-08 which will be used.
 LinEq1:  Iter=  0 NonCon=     1 RMS=3.47D-08 Max=2.78D-06 NDo=     1
 LinEq1:  Iter=  1 NonCon=     1 RMS=2.10D-08 Max=1.17D-06 NDo=     1
 LinEq1:  Iter=  2 NonCon=     1 RMS=1.04D-08 Max=8.24D-07 NDo=     1
 LinEq1:  Iter=  3 NonCon=     1 RMS=4.52D-09 Max=3.97D-07 NDo=     1
 LinEq1:  Iter=  4 NonCon=     1 RMS=2.58D-09 Max=1.87D-07 NDo=     1
 LinEq1:  Iter=  5 NonCon=     1 RMS=1.23D-09 Max=9.81D-08 NDo=     1
 LinEq1:  Iter=  6 NonCon=     1 RMS=5.06D-10 Max=3.78D-08 NDo=     1
 LinEq1:  Iter=  7 NonCon=     1 RMS=2.37D-10 Max=2.06D-08 NDo=     1
 LinEq1:  Iter=  8 NonCon=     1 RMS=1.39D-10 Max=8.83D-09 NDo=     1
 LinEq1:  Iter=  9 NonCon=     1 RMS=6.89D-11 Max=3.81D-09 NDo=     1
 LinEq1:  Iter= 10 NonCon=     1 RMS=3.68D-11 Max=1.74D-09 NDo=     1
 LinEq1:  Iter= 11 NonCon=     1 RMS=2.20D-11 Max=1.54D-09 NDo=     1
 LinEq1:  Iter= 12 NonCon=     0 RMS=1.07D-11 Max=6.74D-10 NDo=     1
 Linear equations converged to 1.180D-10 1.180D-09 after    12 iterations.
 SCF Done:  E(RCAM-B3LYP) =  -6831.80200575     a.u. after    9 cycles
            Convg  =    0.3665D-09                    41 Fock formations.
              S**2 =  0.0000                  -V/T =  1.9949
 DoSCS=F DFT=T ScalE2(SS,OS)=  1.000000  1.000000
 Range of M.O.s used for correlation:     1   747
 NBasis=   747 NAE=   190 NBE=   190 NFC=     0 NFV=     0
 NROrb=    747 NOA=   190 NOB=   190 NVA=   557 NVB=   557
   1 Symmetry operations used in ECPInt.
 ECPInt:  NShTT=   34716 NPrTT=  206045 LenC2=   25871 LenP2D=   78645.
 LDataN:  DoStor=T MaxTD1= 6 Len=  172
 Number of processors reduced to  11 by ecpmxn.
 Symmetrizing basis deriv contribution to polar:
 IMax=3 JMax=2 DiffMx= 0.00D+00
 G2DrvN: will do    70 centers at a time, making    1 passes.
 Calling FoFCou, ICntrl=  3107 FMM=T I1Cent=   0 AccDes= 0.00D+00.
 End of G2Drv F.D. properties file   721 does not exist.
 End of G2Drv F.D. properties file   722 does not exist.
 End of G2Drv F.D. properties file   788 does not exist.
          IDoAtm=00110110111111111111111111111111111111111111111111
          IDoAtm=1111111111111111111
          Differentiating once with respect to electric field.
                with respect to dipole field.
          Differentiating once with respect to nuclear coordinates.
 CalDSu exits because no D1Ps are significant.
          There are   198 degrees of freedom in the 1st order CPHF.  IDoFFX=6 NUNeed=     3.
    198 vectors produced by pass  0 Test12= 1.06D-13 1.00D-09 XBig12= 1.76D+02 2.48D+00.
 AX will form    96 AO Fock derivatives at one time.
    198 vectors produced by pass  1 Test12= 1.06D-13 1.00D-09 XBig12= 2.22D+01 6.98D-01.
    198 vectors produced by pass  2 Test12= 1.06D-13 1.00D-09 XBig12= 5.26D-01 7.77D-02.
    198 vectors produced by pass  3 Test12= 1.06D-13 1.00D-09 XBig12= 1.12D-02 2.03D-02.
    198 vectors produced by pass  4 Test12= 1.06D-13 1.00D-09 XBig12= 1.08D-04 2.51D-03.
    198 vectors produced by pass  5 Test12= 1.06D-13 1.00D-09 XBig12= 6.05D-07 1.29D-04.
    130 vectors produced by pass  6 Test12= 1.06D-13 1.00D-09 XBig12= 2.92D-09 8.10D-06.
     44 vectors produced by pass  7 Test12= 1.06D-13 1.00D-09 XBig12= 1.40D-11 4.92D-07.
      3 vectors produced by pass  8 Test12= 1.06D-13 1.00D-09 XBig12= 6.04D-14 1.77D-08.
      2 vectors produced by pass  9 Test12= 1.06D-13 1.00D-09 XBig12= 2.43D-16 1.22D-09.
 InvSVY:  IOpt=1 It=  1 EMax= 8.88D-15
 Solved reduced A of dimension  1367 with   198 vectors.
 Isotropic polarizability for W=    0.000000      359.25 Bohr**3.
 End of Minotr F.D. properties file   721 does not exist.
 End of Minotr F.D. properties file   722 does not exist.
 End of Minotr F.D. properties file   788 does not exist.

 **********************************************************************

            Population analysis using the SCF density.

 **********************************************************************

 Alpha  occ. eigenvalues -- -482.59318-101.65848-101.61828-101.59895-101.58693
 Alpha  occ. eigenvalues -- -101.58315-101.55839 -61.67404 -56.24227 -56.24180
 Alpha  occ. eigenvalues --  -56.24165 -19.28461 -19.28224 -19.24010 -14.52871
 Alpha  occ. eigenvalues --  -14.43841 -14.43709 -14.40527 -14.38397 -14.37462
 Alpha  occ. eigenvalues --  -14.34010 -10.46300 -10.35417 -10.35145 -10.33256
 Alpha  occ. eigenvalues --  -10.32965 -10.32329 -10.32224 -10.31311 -10.31283
 Alpha  occ. eigenvalues --  -10.30464 -10.30417 -10.29637 -10.28794 -10.28541
 Alpha  occ. eigenvalues --  -10.27670 -10.26418 -10.26399 -10.26322 -10.25387
 Alpha  occ. eigenvalues --  -10.24983 -10.24912  -9.59067  -9.55001  -9.53077
 Alpha  occ. eigenvalues --   -9.51923  -9.51485  -9.49104  -8.45410  -7.35455
 Alpha  occ. eigenvalues --   -7.34583  -7.34453  -7.31483  -7.30411  -7.30405
 Alpha  occ. eigenvalues --   -7.29517  -7.28517  -7.28500  -7.28355  -7.27909
 Alpha  occ. eigenvalues --   -7.27366  -7.27344  -7.26936  -7.26918  -7.25532
 Alpha  occ. eigenvalues --   -7.24542  -7.24526  -6.46395  -6.46333  -6.46300
 Alpha  occ. eigenvalues --   -2.58687  -2.58676  -2.58649  -2.58599  -2.58596
 Alpha  occ. eigenvalues --   -2.15707  -1.26375  -1.14303  -1.13795  -1.12623
 Alpha  occ. eigenvalues --   -1.09594  -1.07876  -1.05058  -1.00415  -0.97782
 Alpha  occ. eigenvalues --   -0.94977  -0.93665  -0.92939  -0.92675  -0.91070
 Alpha  occ. eigenvalues --   -0.88959  -0.88576  -0.87943  -0.87216  -0.86501
 Alpha  occ. eigenvalues --   -0.85940  -0.81919  -0.81491  -0.80077  -0.76855
 Alpha  occ. eigenvalues --   -0.74520  -0.74170  -0.73505  -0.73126  -0.72405
 Alpha  occ. eigenvalues --   -0.69610  -0.69439  -0.68470  -0.67931  -0.67617
 Alpha  occ. eigenvalues --   -0.67520  -0.66944  -0.66822  -0.66050  -0.65167
 Alpha  occ. eigenvalues --   -0.63953  -0.61767  -0.61411  -0.61134  -0.60692
 Alpha  occ. eigenvalues --   -0.59831  -0.59640  -0.59200  -0.58781  -0.57252
 Alpha  occ. eigenvalues --   -0.56987  -0.56245  -0.55306  -0.54608  -0.54431
 Alpha  occ. eigenvalues --   -0.53496  -0.53381  -0.52888  -0.51892  -0.51329
 Alpha  occ. eigenvalues --   -0.50794  -0.50353  -0.49961  -0.49322  -0.48427
 Alpha  occ. eigenvalues --   -0.48293  -0.48080  -0.47648  -0.47068  -0.46926
 Alpha  occ. eigenvalues --   -0.46553  -0.46460  -0.46162  -0.45918  -0.45677
 Alpha  occ. eigenvalues --   -0.45542  -0.45457  -0.45043  -0.44983  -0.44589
 Alpha  occ. eigenvalues --   -0.44009  -0.43775  -0.43476  -0.43099  -0.42539
 Alpha  occ. eigenvalues --   -0.42475  -0.42048  -0.41798  -0.41267  -0.40976
 Alpha  occ. eigenvalues --   -0.40657  -0.40178  -0.39963  -0.39162  -0.38943
 Alpha  occ. eigenvalues --   -0.38785  -0.38576  -0.38090  -0.37636  -0.37079
 Alpha  occ. eigenvalues --   -0.36525  -0.36464  -0.35777  -0.34978  -0.33175
 Alpha  occ. eigenvalues --   -0.32425  -0.30862  -0.29354  -0.29042  -0.28107
 Alpha  occ. eigenvalues --   -0.25221  -0.24329  -0.23985  -0.23778  -0.22506
 Alpha virt. eigenvalues --   -0.05534   0.00273   0.01055   0.05108   0.05512
 Alpha virt. eigenvalues --    0.06069   0.07427   0.07917   0.09192   0.09560
 Alpha virt. eigenvalues --    0.09901   0.10143   0.10648   0.11596   0.11897
 Alpha virt. eigenvalues --    0.12272   0.12444   0.12591   0.12923   0.13387
 Alpha virt. eigenvalues --    0.13497   0.13875   0.14043   0.14313   0.14757
 Alpha virt. eigenvalues --    0.15237   0.15446   0.15667   0.16097   0.16352
 Alpha virt. eigenvalues --    0.16698   0.17267   0.17632   0.17902   0.18389
 Alpha virt. eigenvalues --    0.18913   0.19423   0.19750   0.20236   0.20776
 Alpha virt. eigenvalues --    0.20829   0.21096   0.21351   0.21849   0.22075
 Alpha virt. eigenvalues --    0.22502   0.22831   0.23481   0.23753   0.23916
 Alpha virt. eigenvalues --    0.24386   0.24618   0.25158   0.25464   0.26215
 Alpha virt. eigenvalues --    0.26471   0.26998   0.27331   0.27429   0.27807
 Alpha virt. eigenvalues --    0.28613   0.29002   0.29376   0.29698   0.30177
 Alpha virt. eigenvalues --    0.30688   0.31205   0.31481   0.31942   0.32313
 Alpha virt. eigenvalues --    0.32566   0.32967   0.33529   0.34057   0.34608
 Alpha virt. eigenvalues --    0.35061   0.36833   0.38082   0.39793   0.40548
 Alpha virt. eigenvalues --    0.40727   0.41538   0.41826   0.42438   0.43511
 Alpha virt. eigenvalues --    0.43620   0.44105   0.44837   0.45457   0.45925
 Alpha virt. eigenvalues --    0.46637   0.47151   0.47592   0.47771   0.48408
 Alpha virt. eigenvalues --    0.48916   0.49512   0.50238   0.50355   0.50657
 Alpha virt. eigenvalues --    0.51201   0.51392   0.51875   0.52316   0.52629
 Alpha virt. eigenvalues --    0.53115   0.53220   0.53692   0.53924   0.54240
 Alpha virt. eigenvalues --    0.54699   0.55196   0.56099   0.56524   0.56566
 Alpha virt. eigenvalues --    0.57453   0.58012   0.58292   0.58376   0.58862
 Alpha virt. eigenvalues --    0.59561   0.60116   0.60839   0.60879   0.61541
 Alpha virt. eigenvalues --    0.61864   0.62638   0.62883   0.63428   0.63712
 Alpha virt. eigenvalues --    0.63955   0.64217   0.64974   0.65425   0.65644
 Alpha virt. eigenvalues --    0.66038   0.66265   0.66667   0.66791   0.67101
 Alpha virt. eigenvalues --    0.67571   0.67880   0.68433   0.68834   0.69136
 Alpha virt. eigenvalues --    0.69309   0.69642   0.69966   0.70674   0.70998
 Alpha virt. eigenvalues --    0.71278   0.71564   0.72000   0.72417   0.72560
 Alpha virt. eigenvalues --    0.73402   0.73559   0.74379   0.74534   0.74656
 Alpha virt. eigenvalues --    0.75461   0.76016   0.76565   0.76630   0.77137
 Alpha virt. eigenvalues --    0.78251   0.78507   0.79248   0.79989   0.80132
 Alpha virt. eigenvalues --    0.80911   0.81202   0.81709   0.82570   0.83666
 Alpha virt. eigenvalues --    0.84316   0.84475   0.85055   0.86095   0.86200
 Alpha virt. eigenvalues --    0.86718   0.86883   0.87355   0.87995   0.88369
 Alpha virt. eigenvalues --    0.88934   0.89664   0.90381   0.90492   0.90708
 Alpha virt. eigenvalues --    0.90913   0.91296   0.91678   0.91776   0.91915
 Alpha virt. eigenvalues --    0.92211   0.92545   0.92656   0.93131   0.93354
 Alpha virt. eigenvalues --    0.93557   0.93832   0.94121   0.94244   0.94658
 Alpha virt. eigenvalues --    0.94745   0.94839   0.95124   0.95511   0.95739
 Alpha virt. eigenvalues --    0.96182   0.96490   0.96671   0.96815   0.97185
 Alpha virt. eigenvalues --    0.97491   0.97825   0.98217   0.98457   0.98756
 Alpha virt. eigenvalues --    0.99371   0.99845   0.99990   1.00271   1.00682
 Alpha virt. eigenvalues --    1.01277   1.01631   1.01935   1.02208   1.02432
 Alpha virt. eigenvalues --    1.03206   1.03442   1.03777   1.04298   1.04844
 Alpha virt. eigenvalues --    1.05119   1.05292   1.05487   1.05723   1.06411
 Alpha virt. eigenvalues --    1.06793   1.07080   1.07624   1.07798   1.08029
 Alpha virt. eigenvalues --    1.08859   1.09015   1.09433   1.09900   1.10024
 Alpha virt. eigenvalues --    1.11413   1.11739   1.11983   1.12698   1.12963
 Alpha virt. eigenvalues --    1.13358   1.13658   1.14679   1.15263   1.15479
 Alpha virt. eigenvalues --    1.15865   1.17291   1.18225   1.18574   1.19632
 Alpha virt. eigenvalues --    1.20392   1.20656   1.21065   1.22206   1.23245
 Alpha virt. eigenvalues --    1.24057   1.24301   1.25583   1.26457   1.27086
 Alpha virt. eigenvalues --    1.27841   1.28537   1.29323   1.29929   1.30915
 Alpha virt. eigenvalues --    1.33671   1.34276   1.34604   1.35219   1.36818
 Alpha virt. eigenvalues --    1.38401   1.38944   1.39552   1.40866   1.41360
 Alpha virt. eigenvalues --    1.41911   1.42747   1.43310   1.45034   1.45274
 Alpha virt. eigenvalues --    1.46357   1.47040   1.47372   1.47851   1.48182
 Alpha virt. eigenvalues --    1.49347   1.49587   1.50058   1.50262   1.50787
 Alpha virt. eigenvalues --    1.51469   1.51789   1.52506   1.53308   1.54309
 Alpha virt. eigenvalues --    1.55281   1.57503   1.58613   1.60084   1.61392
 Alpha virt. eigenvalues --    1.61843   1.62465   1.63008   1.63830   1.63996
 Alpha virt. eigenvalues --    1.64595   1.65208   1.66242   1.66809   1.66896
 Alpha virt. eigenvalues --    1.68033   1.68335   1.68901   1.69608   1.70227
 Alpha virt. eigenvalues --    1.70910   1.71242   1.71746   1.72896   1.73409
 Alpha virt. eigenvalues --    1.74673   1.75908   1.76133   1.76795   1.78263
 Alpha virt. eigenvalues --    1.78674   1.79789   1.80018   1.81889   1.84703
 Alpha virt. eigenvalues --    1.85079   1.86152   1.88273   1.88564   1.89267
 Alpha virt. eigenvalues --    1.89831   1.90521   1.91144   1.91958   1.93206
 Alpha virt. eigenvalues --    1.93753   1.94226   1.95326   1.95590   1.96449
 Alpha virt. eigenvalues --    1.97325   1.98182   1.99054   1.99158   1.99979
 Alpha virt. eigenvalues --    2.00312   2.00860   2.01564   2.02801   2.03102
 Alpha virt. eigenvalues --    2.05220   2.05526   2.05811   2.06115   2.06770
 Alpha virt. eigenvalues --    2.08653   2.09233   2.09651   2.10133   2.10543
 Alpha virt. eigenvalues --    2.11026   2.11457   2.12174   2.12347   2.12678
 Alpha virt. eigenvalues --    2.13160   2.13606   2.13640   2.14037   2.15489
 Alpha virt. eigenvalues --    2.16141   2.16178   2.16593   2.17370   2.18435
 Alpha virt. eigenvalues --    2.18723   2.19176   2.19468   2.19794   2.20354
 Alpha virt. eigenvalues --    2.20640   2.20888   2.21308   2.21768   2.22351
 Alpha virt. eigenvalues --    2.22749   2.22980   2.24260   2.25719   2.26435
 Alpha virt. eigenvalues --    2.26691   2.27120   2.27912   2.29085   2.29752
 Alpha virt. eigenvalues --    2.30924   2.31234   2.32133   2.32964   2.33436
 Alpha virt. eigenvalues --    2.33605   2.34164   2.34537   2.35184   2.35461
 Alpha virt. eigenvalues --    2.36019   2.36382   2.36894   2.37290   2.38061
 Alpha virt. eigenvalues --    2.38240   2.38788   2.39441   2.40791   2.42995
 Alpha virt. eigenvalues --    2.43133   2.43345   2.43771   2.45879   2.48053
 Alpha virt. eigenvalues --    2.49173   2.49799   2.49830   2.50987   2.51839
 Alpha virt. eigenvalues --    2.52549   2.52769   2.54441   2.57560   2.58344
 Alpha virt. eigenvalues --    2.59773   2.61708   2.63197   2.63630   2.64212
 Alpha virt. eigenvalues --    2.65059   2.65430   2.66446   2.66729   2.67067
 Alpha virt. eigenvalues --    2.67959   2.68577   2.68961   2.69870   2.70559
 Alpha virt. eigenvalues --    2.71058   2.71329   2.71488   2.72054   2.72805
 Alpha virt. eigenvalues --    2.73441   2.73782   2.74793   2.75101   2.75833
 Alpha virt. eigenvalues --    2.76520   2.76783   2.78426   2.78635   2.78958
 Alpha virt. eigenvalues --    2.79439   2.80367   2.80858   2.81489   2.82088
 Alpha virt. eigenvalues --    2.84108   2.84901   2.85100   2.85748   2.86411
 Alpha virt. eigenvalues --    2.86978   2.88173   2.88589   2.89025   2.89738
 Alpha virt. eigenvalues --    2.90867   2.91580   2.91946   2.91954   2.93385
 Alpha virt. eigenvalues --    2.93762   2.94400   2.94553   2.95751   2.95863
 Alpha virt. eigenvalues --    2.96660   2.97640   2.98223   2.98383   2.99133
 Alpha virt. eigenvalues --    2.99184   3.00383   3.01330   3.01643   3.01910
 Alpha virt. eigenvalues --    3.03585   3.03977   3.04396   3.05240   3.07659
 Alpha virt. eigenvalues --    3.10658   3.19524   3.23861   3.24255   3.26521
 Alpha virt. eigenvalues --    3.26863   3.27779   3.29032   3.29776   3.32262
 Alpha virt. eigenvalues --    3.32552   3.37359   3.37787   3.39953   3.40853
 Alpha virt. eigenvalues --    3.43842   3.45269   3.47756   3.48803   3.50442
 Alpha virt. eigenvalues --    3.51855   3.52061   3.52616   3.53447   3.55389
 Alpha virt. eigenvalues --    3.57388   3.57595   3.59394   3.59858   3.61455
 Alpha virt. eigenvalues --    3.62116   3.62550   3.64747   3.66459   3.68805
 Alpha virt. eigenvalues --    8.73412   9.38854
          Condensed to atoms (all electrons):
 Mulliken charges:
               1
     1  Li   0.597149
     2  N   -0.496878
     3  C    0.061273
     4  Cl   0.060220
     5  N   -0.390782
     6  C   -0.011673
     7  Cl  -0.027762
     8  N   -0.370673
     9  C    0.009146
    10  Cl  -0.037280
    11  Zn   1.034816
    12  N   -0.532886
    13  C    0.056100
    14  Cl   0.056307
    15  N   -0.604285
    16  C    0.036864
    17  Cl  -0.030905
    18  N   -0.564672
    19  C    0.030314
    20  Cl  -0.008699
    21  C    0.230956
    22  H    0.153367
    23  C    0.150997
    24  H    0.137412
    25  C    0.159470
    26  H    0.122328
    27  C    0.117379
    28  C    0.024464
    29  O   -0.418052
    30  C   -0.328086
    31  H    0.181867
    32  H    0.122461
    33  H    0.132689
    34  H    0.114876
    35  H    0.121857
    36  H    0.169052
    37  N   -0.379397
    38  C   -0.074878
    39  C   -0.339146
    40  H    0.199776
    41  H    0.122364
    42  H    0.144294
    43  H    0.132157
    44  H    0.105634
    45  C   -0.059144
    46  C   -0.347625
    47  H    0.143070
    48  H    0.126595
    49  H    0.121553
    50  H    0.145292
    51  H    0.161113
    52  C   -0.085376
    53  C   -0.339972
    54  H    0.169675
    55  H    0.120351
    56  H    0.130914
    57  H    0.159452
    58  H    0.144383
    59  C   -0.077813
    60  C   -0.350426
    61  H    0.152450
    62  H    0.182189
    63  H    0.154006
    64  H    0.094777
    65  H    0.154749
    66  Br  -0.752117
    67  C    0.832365
    68  O   -0.412291
    69  O   -0.537701
 Sum of Mulliken charges =   0.00000
 Mulliken charges with hydrogens summed into heavy atoms:
               1
     1  Li   0.597149
     2  N   -0.496878
     3  C    0.061273
     4  Cl   0.060220
     5  N   -0.390782
     6  C   -0.011673
     7  Cl  -0.027762
     8  N   -0.370673
     9  C    0.009146
    10  Cl  -0.037280
    11  Zn   1.034816
    12  N   -0.532886
    13  C    0.056100
    14  Cl   0.056307
    15  N   -0.604285
    16  C    0.036864
    17  Cl  -0.030905
    18  N   -0.564672
    19  C    0.030314
    20  Cl  -0.008699
    21  C    0.384323
    23  C    0.288409
    25  C    0.281798
    27  C    0.286431
    28  C    0.328792
    29  O   -0.418052
    30  C    0.041334
    37  N   -0.379397
    38  C    0.247263
    39  C    0.042939
    45  C    0.210520
    46  C    0.080332
    52  C    0.204650
    53  C    0.094778
    59  C    0.256826
    60  C    0.053106
    66  Br  -0.752117
    67  C    0.832365
    68  O   -0.412291
    69  O   -0.537701
 Electronic spatial extent (au):  <R**2>=          30074.8488
 Charge=              0.0000 electrons
 Dipole moment (field-independent basis, Debye):
    X=              7.2715    Y=            -10.3382    Z=             -4.3261  Tot=             13.3592
 Quadrupole moment (field-independent basis, Debye-Ang):
   XX=           -321.9389   YY=           -193.7070   ZZ=           -263.7114
   XY=             44.9130   XZ=             25.3230   YZ=             37.1825
 Traceless Quadrupole moment (field-independent basis, Debye-Ang):
   XX=            -62.1531   YY=             66.0787   ZZ=             -3.9256
   XY=             44.9130   XZ=             25.3230   YZ=             37.1825
 Octapole moment (field-independent basis, Debye-Ang**2):
  XXX=           -268.2183  YYY=           -743.0893  ZZZ=           -459.2996  XYY=             13.1438
  XXY=           -210.6168  XXZ=            -71.6189  XZZ=           -166.7322  YZZ=           -584.1274
  YYZ=           -373.3641  XYZ=             37.7276
 Hexadecapole moment (field-independent basis, Debye-Ang**3):
 XXXX=         -12780.8267 YYYY=         -11782.8133 ZZZZ=          -9421.2385 XXXY=          -2174.3535
 XXXZ=           -271.0546 YYYX=          -1579.1531 YYYZ=            241.4558 ZZZX=           -267.0672
 ZZZY=          -1202.6739 XXYY=          -4192.7470 XXZZ=          -3874.6638 YYZZ=          -3497.2031
 XXYZ=           -305.3998 YYXZ=            294.3305 ZZXY=           -815.2960
 N-N= 7.477264172699D+03 E-N=-3.124927802163D+04  KE= 6.866604741733D+03
  Exact polarizability: 364.164  20.065 361.031 -15.707  13.099 352.545
 Approx polarizability: 435.675  -0.055 410.364 -27.776  10.539 426.528
   1 Symmetry operations used in ECPInt.
 ECPInt:  NShTT=   34716 NPrTT=  206045 LenC2=   25871 LenP2D=   78645.
 LDataN:  DoStor=T MaxTD1= 7 Len=  274
 Calling FoFJK, ICntrl=    100127 FMM=F ISym2X=0 I1Cent= 0 IOpClX= 0 NMat=1 NMatS=1 NMatT=0.
 -------------------------------------------------------------------
 Center     Atomic                   Forces (Hartrees/Bohr)
 Number     Number              X              Y              Z
 -------------------------------------------------------------------
      1        3          -0.000000000   -0.000000000   -0.000000000
      2        7          -0.000000000   -0.000000000   -0.000000000
      3        6           0.000000175   -0.000000349   -0.000000403
      4       17           0.000000029    0.000000063    0.000000013
      5        7          -0.000000000   -0.000000000   -0.000000000
      6        6          -0.000000318   -0.000000408    0.000000327
      7       17           0.000000248    0.000000063   -0.000000102
      8        7          -0.000000000   -0.000000000   -0.000000000
      9        6          -0.000000237    0.000000081   -0.000000253
     10       17           0.000000114   -0.000000021    0.000000070
     11       30           0.000000192   -0.000000007    0.000000063
     12        7          -0.000000113   -0.000000240    0.000000329
     13        6           0.000000276    0.000000561   -0.000000146
     14       17          -0.000000048    0.000000001    0.000000059
     15        7          -0.000000162    0.000000082   -0.000000034
     16        6          -0.000000084   -0.000000318   -0.000000637
     17       17          -0.000000030    0.000000135    0.000000269
     18        7          -0.000000453    0.000000576   -0.000000174
     19        6           0.000000622   -0.000000019   -0.000000158
     20       17           0.000000066   -0.000000061    0.000000005
     21        6          -0.000000625   -0.000000624   -0.000000143
     22        1           0.000000299    0.000000248   -0.000000122
     23        6           0.000000726    0.000000194    0.000001007
     24        1          -0.000000351   -0.000000069   -0.000000471
     25        6          -0.000000111   -0.000000629    0.000000307
     26        1          -0.000000274    0.000000194    0.000000009
     27        6           0.000000145    0.000000628    0.000000550
     28        6          -0.000000386    0.000000558   -0.000000589
     29        8           0.000000303   -0.000000119   -0.000000208
     30        6          -0.000000495    0.000000024    0.000000531
     31        1           0.000000235   -0.000000280   -0.000000013
     32        1          -0.000000115   -0.000000298    0.000000128
     33        1           0.000000287    0.000000055   -0.000000002
     34        1          -0.000000025   -0.000000245   -0.000000087
     35        1           0.000000202   -0.000000017   -0.000000393
     36        1          -0.000000063   -0.000000324   -0.000000140
     37        7          -0.000000181   -0.000000597    0.000000156
     38        6          -0.000000280    0.000000308   -0.000000589
     39        6          -0.000000220   -0.000000004    0.000000817
     40        1          -0.000000041   -0.000000118    0.000000100
     41        1           0.000000131   -0.000000170    0.000000142
     42        1           0.000000234   -0.000000163   -0.000000427
     43        1          -0.000000014    0.000000097   -0.000000058
     44        1           0.000000174    0.000000137   -0.000000087
     45        6          -0.000000319    0.000000304   -0.000000466
     46        6           0.000000223   -0.000000446    0.000000634
     47        1           0.000000248   -0.000000102    0.000000146
     48        1           0.000000009    0.000000033    0.000000032
     49        1           0.000000104    0.000000164   -0.000000088
     50        1          -0.000000031    0.000000102   -0.000000078
     51        1          -0.000000230    0.000000068   -0.000000296
     52        6           0.000000293    0.000000379   -0.000000008
     53        6          -0.000000090   -0.000000006    0.000000088
     54        1          -0.000000050    0.000000028    0.000000072
     55        1          -0.000000045   -0.000000168   -0.000000034
     56        1           0.000000103   -0.000000095    0.000000141
     57        1          -0.000000075    0.000000156    0.000000045
     58        1           0.000000082   -0.000000158   -0.000000240
     59        6          -0.000000034    0.000000121    0.000000202
     60        6          -0.000000477   -0.000000172   -0.000000014
     61        1           0.000000055    0.000000009   -0.000000187
     62        1           0.000000056    0.000000052    0.000000031
     63        1           0.000000088    0.000000196    0.000000018
     64        1           0.000000346    0.000000037   -0.000000102
     65        1          -0.000000031   -0.000000009    0.000000039
     66       35          -0.000000004    0.000000006    0.000000012
     67        6           0.000000376    0.000000263   -0.000001090
     68        8          -0.000000483   -0.000000146    0.000000716
     69        8           0.000000005   -0.000000095    0.000000556
 -------------------------------------------------------------------
 Cartesian Forces:  Max     0.000001090 RMS     0.000000283

 GradGradGradGradGradGradGradGradGradGradGradGradGradGradGradGradGradGrad
 Berny optimization.
 Search for a local minimum.
 Step number   1 out of a maximum of  217
 All quantities printed in internal units (Hartrees-Bohrs-Radians)
 Second derivative matrix not updated -- analytic derivatives used.
 ITU=  0
     Eigenvalues ---    0.00001   0.00003   0.00005   0.00008   0.00011
     Eigenvalues ---    0.00017   0.00024   0.00036   0.00040   0.00046
     Eigenvalues ---    0.00061   0.00069   0.00084   0.00103   0.00118
     Eigenvalues ---    0.00139   0.00157   0.00166   0.00194   0.00248
     Eigenvalues ---    0.00251   0.00278   0.00317   0.00350   0.00384
     Eigenvalues ---    0.00422   0.00458   0.00479   0.00522   0.00545
     Eigenvalues ---    0.00610   0.00665   0.00689   0.00841   0.00957
     Eigenvalues ---    0.01103   0.01216   0.01324   0.01356   0.01430
     Eigenvalues ---    0.01441   0.01486   0.01569   0.01667   0.02009
     Eigenvalues ---    0.02619   0.02669   0.02765   0.02874   0.02905
     Eigenvalues ---    0.02947   0.02974   0.03128   0.03203   0.03356
     Eigenvalues ---    0.03519   0.03575   0.03774   0.03844   0.03958
     Eigenvalues ---    0.03997   0.04089   0.04618   0.04875   0.05440
     Eigenvalues ---    0.05457   0.05679   0.05745   0.06184   0.06331
     Eigenvalues ---    0.06479   0.06691   0.06757   0.06910   0.06981
     Eigenvalues ---    0.07005   0.07158   0.07207   0.07273   0.07410
     Eigenvalues ---    0.07646   0.07800   0.07855   0.07993   0.08167
     Eigenvalues ---    0.08371   0.08973   0.09187   0.09523   0.09954
     Eigenvalues ---    0.09990   0.10051   0.10188   0.10516   0.11415
     Eigenvalues ---    0.11419   0.11450   0.11564   0.11632   0.11698
     Eigenvalues ---    0.12463   0.12951   0.13244   0.13596   0.14164
     Eigenvalues ---    0.14201   0.14331   0.14480   0.15334   0.15402
     Eigenvalues ---    0.15778   0.16542   0.16711   0.16954   0.17047
     Eigenvalues ---    0.17202   0.17297   0.20409   0.20752   0.20878
     Eigenvalues ---    0.20992   0.21092   0.21146   0.21197   0.22994
     Eigenvalues ---    0.23671   0.23772   0.24054   0.24562   0.27129
     Eigenvalues ---    0.27741   0.28160   0.28373   0.28659   0.34111
     Eigenvalues ---    0.34789   0.34898   0.35163   0.35358   0.36682
     Eigenvalues ---    0.37182   0.44625   0.46887   0.48221   0.48853
     Eigenvalues ---    0.51187   0.53508   0.55118   0.55909   0.56294
     Eigenvalues ---    0.61953   0.65257   0.66013   0.66271   0.66508
     Eigenvalues ---    0.66655   0.66982   0.68898   0.76123   0.76785
     Eigenvalues ---    0.79381   0.80198   0.81654   0.81954   0.82640
     Eigenvalues ---    0.84263   0.84573   0.84688   0.85038   0.85138
     Eigenvalues ---    0.85794   0.86027   0.86041   0.88973   0.89619
     Eigenvalues ---    0.89827   0.90009   0.91272   0.92854   0.93263
     Eigenvalues ---    0.94603   0.95081   0.96522   0.97432   0.98204
     Eigenvalues ---    0.98554   0.99261   1.04401   1.12202   1.12992
     Eigenvalues ---    1.15346   1.15780   1.18955   1.21501   1.66200
 RFO step:  Lambda= 0.00000000D+00 EMin= 1.21032653D-05
 Linear search not attempted -- first point.
 Variable       Old X    -DE/DX   Delta X   Delta X   Delta X     New X
                                 (Linear)    (Quad)   (Total)
    X1       -1.23999  -0.00000   0.00000   0.00000   0.00000  -1.23999
    Y1       -9.52118  -0.00000   0.00000   0.00000   0.00000  -9.52118
    Z1       -6.53361  -0.00000   0.00000   0.00000   0.00000  -6.53361
    X2       -0.53440  -0.00000   0.00000   0.00000   0.00000  -0.53440
    Y2       -6.94584  -0.00000   0.00000   0.00000   0.00000  -6.94584
    Z2       -4.14735  -0.00000   0.00000   0.00000   0.00000  -4.14735
    X3       -2.23268   0.00000   0.00000   0.00001   0.00001  -2.23267
    Y3       -7.43352  -0.00000   0.00000  -0.00001  -0.00001  -7.43353
    Z3       -2.26948  -0.00000   0.00000   0.00001   0.00001  -2.26947
    X4       -4.04571   0.00000   0.00000   0.00002   0.00002  -4.04569
    Y4      -10.16318   0.00000   0.00000  -0.00001  -0.00001 -10.16319
    Z4       -2.48946   0.00000   0.00000   0.00001   0.00001  -2.48945
    X5        4.39971  -0.00000   0.00000   0.00000   0.00000   4.39971
    Y5        4.91149  -0.00000   0.00000   0.00000   0.00000   4.91149
    Z5       -4.57207  -0.00000   0.00000   0.00000   0.00000  -4.57207
    X6        6.22814  -0.00000   0.00000  -0.00000  -0.00000   6.22814
    Y6        3.15317  -0.00000   0.00000  -0.00000  -0.00000   3.15317
    Z6       -4.20735   0.00000   0.00000  -0.00000  -0.00000  -4.20735
    X7        9.27903   0.00000   0.00000  -0.00000  -0.00000   9.27903
    Y7        3.52847   0.00000   0.00000  -0.00000  -0.00000   3.52847
    Z7       -5.31618  -0.00000   0.00000  -0.00000  -0.00000  -5.31619
    X8       -6.28803  -0.00000   0.00000   0.00000   0.00000  -6.28803
    Y8        3.92134  -0.00000   0.00000   0.00000   0.00000   3.92134
    Z8        2.01394  -0.00000   0.00000   0.00000   0.00000   2.01394
    X9       -6.91614  -0.00000   0.00000  -0.00001  -0.00001  -6.91614
    Y9        3.12765   0.00000   0.00000  -0.00001  -0.00001   3.12764
    Z9       -0.33278  -0.00000   0.00000   0.00000   0.00000  -0.33277
   X10       -9.83474   0.00000   0.00000  -0.00001  -0.00001  -9.83475
   Y10        3.72398  -0.00000   0.00000  -0.00002  -0.00002   3.72396
   Z10       -1.67718   0.00000   0.00000   0.00001   0.00001  -1.67717
   X11        0.24047   0.00000   0.00000   0.00000   0.00000   0.24047
   Y11       -0.11869  -0.00000   0.00000   0.00000   0.00000  -0.11869
   Z11       -0.07710   0.00000   0.00000   0.00000   0.00000  -0.07710
   X12       -0.41935  -0.00000   0.00000   0.00000   0.00000  -0.41934
   Y12       -3.82158  -0.00000   0.00000  -0.00000  -0.00000  -3.82158
   Z12       -1.30388   0.00000   0.00000   0.00000   0.00000  -1.30387
   X13       -2.18334   0.00000   0.00000   0.00001   0.00001  -2.18332
   Y13       -5.53930   0.00000   0.00000  -0.00001  -0.00001  -5.53931
   Z13       -0.52383  -0.00000   0.00000   0.00001   0.00001  -0.52382
   X14       -3.91594  -0.00000   0.00000   0.00003   0.00003  -3.91592
   Y14       -5.19635   0.00000   0.00000  -0.00001  -0.00001  -5.19636
   Z14        2.18019   0.00000   0.00000   0.00002   0.00002   2.18021
   X15       -2.99227  -0.00000   0.00000  -0.00000  -0.00000  -2.99227
   Y15        1.81758   0.00000   0.00000  -0.00000  -0.00000   1.81757
   Z15        0.30806  -0.00000   0.00000  -0.00000  -0.00000   0.30806
   X16       -4.93684  -0.00000   0.00000  -0.00001  -0.00001  -4.93684
   Y16        1.84646  -0.00000   0.00000  -0.00001  -0.00001   1.84644
   Z16       -1.39669  -0.00000   0.00000   0.00000   0.00000  -1.39668
   X17       -4.69055  -0.00000   0.00000  -0.00001  -0.00001  -4.69056
   Y17        0.45984   0.00000   0.00000  -0.00002  -0.00002   0.45982
   Z17       -4.34680   0.00000   0.00000   0.00001   0.00001  -4.34679
   X18        2.77096  -0.00000   0.00000  -0.00000  -0.00000   2.77096
   Y18        1.57716   0.00000   0.00000   0.00000   0.00000   1.57716
   Z18       -2.44799  -0.00000   0.00000   0.00000   0.00000  -2.44799
   X19        5.26675   0.00000   0.00000   0.00000   0.00000   5.26675
   Y19        1.12323  -0.00000   0.00000  -0.00000  -0.00000   1.12323
   Z19       -2.91023  -0.00000   0.00000  -0.00000  -0.00000  -2.91023
   X20        6.74867   0.00000   0.00000   0.00000   0.00000   6.74867
   Y20       -1.62627  -0.00000   0.00000  -0.00000  -0.00000  -1.62627
   Z20       -1.98123   0.00000   0.00000  -0.00000  -0.00000  -1.98124
   X21        0.50091  -0.00000   0.00000  -0.00000  -0.00000   0.50090
   Y21       -4.74222  -0.00000   0.00000   0.00000   0.00000  -4.74221
   Z21       -3.46665  -0.00000   0.00000  -0.00000  -0.00000  -3.46665
   X22        1.94073   0.00000   0.00000  -0.00001  -0.00001   1.94072
   Y22       -3.78170   0.00000   0.00000   0.00001   0.00001  -3.78169
   Z22       -4.54949  -0.00000   0.00000  -0.00001  -0.00001  -4.54950
   X23       -3.94504   0.00000   0.00000   0.00000   0.00000  -3.94504
   Y23        3.10403   0.00000   0.00000   0.00001   0.00001   3.10403
   Z23        2.32588   0.00000   0.00000  -0.00000  -0.00000   2.32588
   X24       -2.83941  -0.00000   0.00000   0.00001   0.00001  -2.83941
   Y24        3.44759  -0.00000   0.00000   0.00001   0.00001   3.44761
   Z24        4.01630  -0.00000   0.00000  -0.00001  -0.00001   4.01630
   X25        2.37463  -0.00000   0.00000  -0.00000  -0.00000   2.37463
   Y25        3.87556  -0.00000   0.00000  -0.00000  -0.00000   3.87556
   Z25       -3.50742   0.00000   0.00000   0.00000   0.00000  -3.50742
   X26        0.53320  -0.00000   0.00000   0.00000   0.00000   0.53320
   Y26        4.76457   0.00000   0.00000   0.00000   0.00000   4.76457
   Z26       -3.46466   0.00000   0.00000   0.00000   0.00000  -3.46466
   X27        2.08338   0.00000   0.00000   0.00000   0.00000   2.08338
   Y27       -0.79394   0.00000   0.00000   0.00004   0.00004  -0.79390
   Z27        9.67805   0.00000   0.00000   0.00000   0.00000   9.67806
   X28       -0.72344  -0.00000   0.00000   0.00000   0.00000  -0.72344
   Y28       -0.84491   0.00000   0.00000   0.00005   0.00005  -0.84486
   Z28        8.91620  -0.00000   0.00000   0.00001   0.00001   8.91620
   X29        3.36410   0.00000   0.00000   0.00000   0.00000   3.36410
   Y29       -0.80249  -0.00000   0.00000   0.00001   0.00001  -0.80248
   Z29        7.25081  -0.00000   0.00000   0.00000   0.00000   7.25082
   X30        2.97558  -0.00000   0.00000  -0.00001  -0.00001   2.97557
   Y30       -3.02386   0.00000   0.00000   0.00004   0.00004  -3.02382
   Z30       11.22100   0.00000   0.00000   0.00002   0.00002  11.22102
   X31       -1.70162   0.00000   0.00000   0.00001   0.00001  -1.70161
   Y31        0.87126  -0.00000   0.00000   0.00005   0.00005   0.87132
   Z31        9.49345  -0.00000   0.00000  -0.00000  -0.00000   9.49345
   X32       -1.71292  -0.00000   0.00000  -0.00001  -0.00001  -1.71292
   Y32       -2.54828  -0.00000   0.00000   0.00005   0.00005  -2.54823
   Z32        9.53061   0.00000   0.00000   0.00002   0.00002   9.53063
   X33        5.01350   0.00000   0.00000  -0.00001  -0.00001   5.01350
   Y33       -2.92899   0.00000   0.00000   0.00004   0.00004  -2.92896
   Z33       11.52891  -0.00000   0.00000   0.00001   0.00001  11.52893
   X34        2.52967  -0.00000   0.00000  -0.00002  -0.00002   2.52965
   Y34       -4.80784  -0.00000   0.00000   0.00004   0.00004  -4.80780
   Z34       10.27807  -0.00000   0.00000   0.00003   0.00003  10.27810
   X35        2.04477   0.00000   0.00000  -0.00000  -0.00000   2.04477
   Y35       -3.00637  -0.00000   0.00000   0.00006   0.00006  -3.00631
   Z35       13.06596  -0.00000   0.00000   0.00002   0.00002  13.06597
   X36        2.53970  -0.00000   0.00000   0.00001   0.00001   2.53971
   Y36        1.02297  -0.00000   0.00000   0.00004   0.00004   1.02301
   Z36       10.53694  -0.00000   0.00000  -0.00001  -0.00001  10.53693
   X37        4.91824  -0.00000   0.00000   0.00001   0.00001   4.91825
   Y37        8.96168  -0.00000   0.00000   0.00003   0.00003   8.96171
   Z37        2.19687   0.00000   0.00000  -0.00004  -0.00004   2.19684
   X38        4.13276  -0.00000   0.00000   0.00001   0.00001   4.13277
   Y38       10.23275   0.00000   0.00000   0.00004   0.00004  10.23279
   Z38        4.66659  -0.00000   0.00000  -0.00004  -0.00004   4.66655
   X39        6.20547  -0.00000   0.00000   0.00001   0.00001   6.20548
   Y39       10.84717  -0.00000   0.00000   0.00006   0.00006  10.84723
   Z39        6.55935   0.00000   0.00000  -0.00005  -0.00005   6.55930
   X40        2.75468  -0.00000   0.00000   0.00002   0.00002   2.75470
   Y40        8.96884  -0.00000   0.00000   0.00004   0.00004   8.96888
   Z40        5.54848   0.00000   0.00000  -0.00004  -0.00004   5.54845
   X41        3.18869   0.00000   0.00000   0.00000   0.00000   3.18869
   Y41       11.98149  -0.00000   0.00000   0.00003   0.00003  11.98152
   Z41        4.10873   0.00000   0.00000  -0.00005  -0.00005   4.10868
   X42        5.25035   0.00000   0.00000   0.00001   0.00001   5.25037
   Y42       11.50562  -0.00000   0.00000   0.00006   0.00006  11.50568
   Z42        8.26756  -0.00000   0.00000  -0.00005  -0.00005   8.26751
   X43        7.32394  -0.00000   0.00000   0.00002   0.00002   7.32396
   Y43        9.20584   0.00000   0.00000   0.00007   0.00007   9.20591
   Z43        7.09722  -0.00000   0.00000  -0.00005  -0.00005   7.09717
   X44        7.47054   0.00000   0.00000   0.00000   0.00000   7.47054
   Y44       12.35289   0.00000   0.00000   0.00006   0.00006  12.35296
   Z44        5.93330  -0.00000   0.00000  -0.00006  -0.00006   5.93324
   X45        7.38533  -0.00000   0.00000   0.00000   0.00000   7.38533
   Y45       10.06581   0.00000   0.00000   0.00004   0.00004  10.06586
   Z45        1.28247  -0.00000   0.00000  -0.00005  -0.00005   1.28242
   X46        8.46362   0.00000   0.00000   0.00000   0.00000   8.46363
   Y46        8.93508  -0.00000   0.00000   0.00004   0.00004   8.93512
   Z46       -1.12600   0.00000   0.00000  -0.00005  -0.00005  -1.12605
   X47        8.73777   0.00000   0.00000   0.00001   0.00001   8.73779
   Y47        9.83586  -0.00000   0.00000   0.00006   0.00006   9.83592
   Z47        2.81310   0.00000   0.00000  -0.00005  -0.00005   2.81305
   X48        7.03783   0.00000   0.00000  -0.00001  -0.00001   7.03782
   Y48       12.09066   0.00000   0.00000   0.00004   0.00004  12.09070
   Z48        1.06344   0.00000   0.00000  -0.00006  -0.00006   1.06338
   X49       10.13376   0.00000   0.00000  -0.00001  -0.00001  10.13376
   Y49       10.03900   0.00000   0.00000   0.00005   0.00005  10.03905
   Z49       -1.63462  -0.00000   0.00000  -0.00006  -0.00006  -1.63468
   X50        9.07635  -0.00000   0.00000   0.00002   0.00002   9.07637
   Y50        6.98561   0.00000   0.00000   0.00004   0.00004   6.98566
   Z50       -0.86293  -0.00000   0.00000  -0.00004  -0.00004  -0.86297
   X51        7.17070  -0.00000   0.00000  -0.00000  -0.00000   7.17069
   Y51        8.97282   0.00000   0.00000   0.00002   0.00002   8.97283
   Z51       -2.72948  -0.00000   0.00000  -0.00004  -0.00004  -2.72953
   X52        2.89396   0.00000   0.00000   0.00001   0.00001   2.89397
   Y52        9.55093   0.00000   0.00000   0.00001   0.00001   9.55094
   Z52        0.23505  -0.00000   0.00000  -0.00004  -0.00004   0.23501
   X53        0.20826  -0.00000   0.00000   0.00001   0.00001   0.20827
   Y53        8.83043  -0.00000   0.00000   0.00001   0.00001   8.83045
   Z53        0.95358   0.00000   0.00000  -0.00002  -0.00002   0.95356
   X54        3.44666  -0.00000   0.00000   0.00000   0.00000   3.44666
   Y54        8.56979   0.00000   0.00000   0.00000   0.00000   8.56979
   Z54       -1.48918   0.00000   0.00000  -0.00003  -0.00003  -1.48921
   X55        3.03242  -0.00000   0.00000  -0.00000  -0.00000   3.03241
   Y55       11.58519  -0.00000   0.00000   0.00001   0.00001  11.58520
   Z55       -0.09550  -0.00000   0.00000  -0.00006  -0.00006  -0.09555
   X56       -1.01879   0.00000   0.00000   0.00001   0.00001  -1.01879
   Y56        9.44849  -0.00000   0.00000  -0.00002  -0.00002   9.44846
   Z56       -0.58907   0.00000   0.00000  -0.00003  -0.00003  -0.58910
   X57       -0.05765  -0.00000   0.00000   0.00002   0.00002  -0.05763
   Y57        6.80007   0.00000   0.00000   0.00002   0.00002   6.80009
   Z57        1.16493   0.00000   0.00000   0.00002   0.00002   1.16495
   X58       -0.45351   0.00000   0.00000   0.00001   0.00001  -0.45350
   Y58        9.73440  -0.00000   0.00000   0.00005   0.00005   9.73444
   Z58        2.68177  -0.00000   0.00000  -0.00004  -0.00004   2.68173
   X59        5.05886  -0.00000   0.00000   0.00003   0.00003   5.05889
   Y59        6.09711   0.00000   0.00000   0.00004   0.00004   6.09715
   Z59        2.45591   0.00000   0.00000  -0.00003  -0.00003   2.45589
   X60        7.05534  -0.00000   0.00000   0.00004   0.00004   7.05537
   Y60        5.06038  -0.00000   0.00000   0.00006   0.00006   5.06044
   Z60        4.23059  -0.00000   0.00000  -0.00002  -0.00002   4.23057
   X61        5.31415   0.00000   0.00000   0.00003   0.00003   5.31419
   Y61        5.38276   0.00000   0.00000   0.00003   0.00003   5.38279
   Z61        0.54187  -0.00000   0.00000  -0.00002  -0.00002   0.54184
   X62        3.22256   0.00000   0.00000   0.00003   0.00003   3.22259
   Y62        5.50884   0.00000   0.00000   0.00003   0.00003   5.50886
   Z62        3.17959   0.00000   0.00000  -0.00002  -0.00002   3.17957
   X63        7.06450   0.00000   0.00000   0.00005   0.00005   7.06455
   Y63        3.01293   0.00000   0.00000   0.00006   0.00006   3.01299
   Z63        3.95982   0.00000   0.00000  -0.00002  -0.00002   3.95981
   X64        8.96506   0.00000   0.00000   0.00003   0.00003   8.96509
   Y64        5.74948   0.00000   0.00000   0.00007   0.00007   5.74955
   Z64        3.84999  -0.00000   0.00000  -0.00003  -0.00003   3.84996
   X65        6.53578  -0.00000   0.00000   0.00003   0.00003   6.53581
   Y65        5.38853  -0.00000   0.00000   0.00006   0.00006   5.38859
   Z65        6.19701   0.00000   0.00000  -0.00002  -0.00002   6.19698
   X66        0.91684  -0.00000   0.00000   0.00003   0.00003   0.91687
   Y66        5.19758   0.00000   0.00000   0.00003   0.00003   5.19761
   Z66        7.73742   0.00000   0.00000  -0.00003  -0.00003   7.73738
   X67        1.69492   0.00000   0.00000   0.00000   0.00000   1.69492
   Y67       -0.65035   0.00000   0.00000   0.00001   0.00001  -0.65033
   Z67        5.42103  -0.00000   0.00000   0.00000   0.00000   5.42103
   X68       -0.65840  -0.00000   0.00000  -0.00000  -0.00000  -0.65840
   Y68       -0.86596  -0.00000   0.00000   0.00003   0.00003  -0.86593
   Z68        6.19607   0.00000   0.00000   0.00001   0.00001   6.19608
   X69        2.29693   0.00000   0.00000  -0.00000  -0.00000   2.29693
   Y69       -0.46653  -0.00000   0.00000  -0.00000  -0.00000  -0.46654
   Z69        3.19092   0.00000   0.00000   0.00000   0.00000   3.19092
         Item               Value     Threshold  Converged?
 Maximum Force            0.000001     0.000015     YES
 RMS     Force            0.000000     0.000010     YES
 Maximum Displacement     0.000070     0.000060     NO 
 RMS     Displacement     0.000027     0.000040     YES
 Predicted change in Energy=-1.284168D-11
 GradGradGradGradGradGradGradGradGradGradGradGradGradGradGradGradGradGrad

 Symmetry turned off by external request.
 Stoichiometry    C21H29BrCl6LiN7O3Zn
 Framework group  C1[X(C21H29BrCl6LiN7O3Zn)]
 Deg. of freedom   201
 Full point group                 C1      NOp   1
                          Input orientation:                          
 ---------------------------------------------------------------------
 Center     Atomic      Atomic             Coordinates (Angstroms)
 Number     Number       Type             X           Y           Z
 ---------------------------------------------------------------------
      1          3           0       -0.656174   -5.038394   -3.457440
      2          7           0       -0.282792   -3.675582   -2.194684
      3          6           0       -1.181477   -3.933655   -1.200954
      4         17           0       -2.140887   -5.378127   -1.317359
      5          7           0        2.328228    2.599049   -2.419433
      6          6           0        3.295792    1.668583   -2.226435
      7         17           0        4.910250    1.867186   -2.813205
      8          7           0       -3.327483    2.075083    1.065729
      9          6           0       -3.659865    1.655075   -0.176096
     10         17           0       -5.204325    1.970633   -0.887520
     11         30           0        0.127254   -0.062808   -0.040801
     12          7           0       -0.221905   -2.022295   -0.689980
     13          6           0       -1.155366   -2.931274   -0.277195
     14         17           0       -2.072213   -2.749797    1.153716
     15          7           0       -1.583442    0.961819    0.163018
     16          6           0       -2.612465    0.977095   -0.739092
     17         17           0       -2.482140    0.243325   -2.300224
     18          7           0        1.466327    0.834599   -1.295423
     19          6           0        2.787045    0.594388   -1.540029
     20         17           0        3.571243   -0.860587   -1.048425
     21          6           0        0.265067   -2.509472   -1.834474
     22          1           0        1.026982   -2.001182   -2.407493
     23          6           0       -2.087625    1.642584    1.230801
     24          1           0       -1.502550    1.824396    2.125332
     25          6           0        1.256599    2.050860   -1.856046
     26          1           0        0.282157    2.521304   -1.833419
     27          6           0        1.102479   -0.420115    5.121406
     28          6           0       -0.382829   -0.447080    4.718252
     29          8           0        1.780205   -0.424652    3.836967
     30          6           0        1.574606   -1.600134    5.937910
     31          1           0       -0.900454    0.461082    5.023716
     32          1           0       -0.906439   -1.348465    5.043393
     33          1           0        2.653028   -1.549936    6.100845
     34          1           0        1.338635   -2.544178    5.438938
     35          1           0        1.082046   -1.590868    6.914216
     36          1           0        1.343956    0.541352    5.575903
     37          7           0        2.602626    4.742334    1.162515
     38          6           0        2.186969    5.414959    2.469430
     39          6           0        3.283801    5.740106    3.471031
     40          1           0        1.457725    4.746127    2.936112
     41          1           0        1.687384    6.340347    2.174220
     42          1           0        2.778375    6.088546    4.374978
     43          1           0        3.875674    4.871558    3.755661
     44          1           0        3.953242    6.536904    3.139736
     45          6           0        3.908149    5.326621    0.678629
     46          6           0        4.478759    4.728263   -0.595881
     47          1           0        4.623837    5.204946    1.488600
     48          1           0        3.724256    6.398122    0.562718
     49          1           0        5.362553    5.312434   -0.865037
     50          1           0        4.803010    3.696650   -0.456666
     51          1           0        3.794568    4.748219   -1.444404
     52          6           0        1.531422    5.054140    0.124361
     53          6           0        0.110210    4.672871    0.504602
     54          1           0        1.823895    4.534935   -0.788057
     55          1           0        1.604685    6.130624   -0.050565
     56          1           0       -0.539119    4.999912   -0.311740
     57          1           0       -0.030497    3.598454    0.616466
     58          1           0       -0.239983    5.151246    1.419111
     59          6           0        2.677047    3.226473    1.299600
     60          6           0        3.733544    2.677869    2.238720
     61          1           0        2.812146    2.848449    0.286731
     62          1           0        1.705323    2.915165    1.682554
     63          1           0        3.738401    1.594405    2.095441
     64          1           0        4.744121    3.042530    2.037312
     65          1           0        3.458603    2.851517    3.279303
     66         35           0        0.485185    2.750459    4.094446
     67          6           0        0.896915   -0.344141    2.868685
     68          8           0       -0.348413   -0.458228    3.278823
     69          8           0        1.215483   -0.246880    1.688564
 ---------------------------------------------------------------------
 Rotational constants (GHZ):           0.0684760           0.0464609           0.0417817
 Basis read from rwf:  (5D, 7F)
 Pseudo-potential data read from rwf file.
   747 basis functions,  1533 primitive gaussians,   789 cartesian basis functions
   190 alpha electrons      190 beta electrons
       nuclear repulsion energy      7477.2614563242 Hartrees.
 NAtoms=   69 NActive=   69 NUniq=   69 SFac= 1.00D+00 NAtFMM=   60 NAOKFM=T Big=T
 Integral buffers will be    131072 words long.
 Raffenetti 2 integral format.
 Two-electron integral symmetry is turned off.
 One-electron integrals computed using PRISM.
   1 Symmetry operations used in ECPInt.
 ECPInt:  NShTT=   34716 NPrTT=  206045 LenC2=   25871 LenP2D=   78645.
 LDataN:  DoStor=T MaxTD1= 5 Len=  102
 NBasis=   747 RedAO= T EigKep=  1.36D-03  NBF=   747
 NBsUse=   747 1.00D-06 EigRej= -1.00D+00 NBFU=   747
 Initial guess from the checkpoint file:  "Zn_PC_TEABr_opt_freq3.chk"
 B after Tr=     0.000007    0.000006   -0.000001
         Rot=    1.000000    0.000002   -0.000001   -0.000001 Ang=   0.00 deg.
 LinEq1:  Iter=  0 NonCon=     1 RMS=3.46D-08 Max=1.07D-06 NDo=     1
 AX will form     1 AO Fock derivatives at one time.
 LinEq1:  Iter=  1 NonCon=     1 RMS=4.11D-09 Max=2.40D-07 NDo=     1
 LinEq1:  Iter=  2 NonCon=     1 RMS=3.35D-09 Max=1.97D-07 NDo=     1
 LinEq1:  Iter=  3 NonCon=     1 RMS=1.46D-09 Max=7.16D-08 NDo=     1
 LinEq1:  Iter=  4 NonCon=     1 RMS=7.42D-10 Max=4.86D-08 NDo=     1
 LinEq1:  Iter=  5 NonCon=     1 RMS=3.96D-10 Max=1.93D-08 NDo=     1
 LinEq1:  Iter=  6 NonCon=     1 RMS=1.65D-10 Max=9.92D-09 NDo=     1
 LinEq1:  Iter=  7 NonCon=     1 RMS=8.91D-11 Max=5.33D-09 NDo=     1
 LinEq1:  Iter=  8 NonCon=     1 RMS=4.86D-11 Max=2.73D-09 NDo=     1
 LinEq1:  Iter=  9 NonCon=     0 RMS=2.24D-11 Max=8.96D-10 NDo=     1
 Linear equations converged to 1.962D-10 1.962D-09 after     9 iterations.
 SCF Done:  E(RCAM-B3LYP) =  -6831.80200575     a.u. after    2 cycles
            Convg  =    0.1050D-08                    11 Fock formations.
              S**2 =  0.0000                  -V/T =  1.9949
 DoSCS=F DFT=T ScalE2(SS,OS)=  1.000000  1.000000
 Range of M.O.s used for correlation:     1   747
 NBasis=   747 NAE=   190 NBE=   190 NFC=     0 NFV=     0
 NROrb=    747 NOA=   190 NOB=   190 NVA=   557 NVB=   557
   1 Symmetry operations used in ECPInt.
 ECPInt:  NShTT=   34716 NPrTT=  206045 LenC2=   25871 LenP2D=   78645.
 LDataN:  DoStor=T MaxTD1= 6 Len=  172
 Number of processors reduced to  11 by ecpmxn.
 Symmetrizing basis deriv contribution to polar:
 IMax=3 JMax=2 DiffMx= 0.00D+00
 G2DrvN: will do    70 centers at a time, making    1 passes.
 Calling FoFCou, ICntrl=  3107 FMM=T I1Cent=   0 AccDes= 0.00D+00.
 End of G2Drv F.D. properties file   721 does not exist.
 End of G2Drv F.D. properties file   722 does not exist.
 End of G2Drv F.D. properties file   788 does not exist.
          IDoAtm=00110110111111111111111111111111111111111111111111
[...]
 1402,-0.00002492,-0.00001041,0.00052907,0.00001835,0.00028420,-0.00014
 685,0.00000986,-0.00007150,-0.00004838,-0.00007836,0.00001468,-0.00013
 624,0.00006188,-0.00005819,-0.00002467,0.00004076,-0.00000815,0.000310
 65,0.00001441,-0.00012408,0.00002313,0.00010920,0.00002872,0.00032772,
 -0.00111956,0.00084871,0.00011265,-0.00064303,-0.00044352,-0.00019127,
 0.00002686,0.00006166,0.00057643,-0.00045189,-0.00043951,-0.00121539,0
 .00003137,0.00097883,0.00009415,0.00058348,-0.00012271,0.00026314,-0.0
 0053982,-0.00013613,-0.00596853,-0.00216106,0.00018816,0.69359128,0.,0
 .,0.,0.,0.,0.,-0.00007754,-0.00024978,-0.00011525,-0.00003461,-0.00002
 565,0.00005196,0.,0.,0.,-0.00009176,-0.00004748,0.00003070,0.00004805,
 -0.00002281,-0.00003248,0.,0.,0.,0.00010382,0.00000958,-0.00005008,-0.
 00019591,0.00002148,-0.00010551,0.00102141,0.00135552,0.00213766,-0.00
 049310,-0.00085635,-0.00018990,0.00069952,-0.00005740,-0.00132082,-0.0
 0021432,0.00004639,0.00064117,-0.00038307,-0.00040036,-0.00043055,-0.0
 0015594,0.00019886,0.00024018,0.00002238,-0.00014426,-0.00024676,-0.00
 014362,-0.00025766,0.00038283,-0.00012883,0.00030771,-0.00004686,0.000
 18161,-0.00022442,-0.00005420,-0.00007913,0.00019257,0.00030170,-0.000
 00218,0.00008123,0.00004020,0.00046673,-0.00014416,0.00068089,0.000958
 67,0.00004162,0.00013075,0.00005512,0.00002058,-0.00003147,0.00004321,
 0.00002426,0.00009590,-0.00205284,-0.00454587,0.00426213,0.00051517,-0
 .00487407,0.00632986,0.00608594,-0.06124837,0.00713928,-0.00208688,0.0
 0032918,0.00332401,0.00024156,0.00078507,-0.00507195,0.00023814,-0.000
 23940,0.00377067,-0.00022822,0.00021101,-0.00031423,-0.00014623,-0.000
 65473,0.00025850,0.00012976,-0.00077242,0.00040506,0.00194688,0.000917
 69,-0.00458067,0.00038359,0.00026863,-0.00022897,0.00003136,0.00012505
 ,-0.00014171,-0.00003122,0.00001843,-0.00006403,-0.00039524,-0.0006172
 6,0.00059754,0.00005057,0.00009688,-0.00005990,-0.00006846,-0.00010075
 ,-0.00002228,-0.00006927,-0.00004287,-0.00001828,0.00009229,0.00006897
 ,-0.00002327,-0.00033011,-0.00005463,0.00006912,0.00008651,0.00003566,
 -0.00000220,-0.00000931,-0.00002035,-0.00001044,0.00004854,0.00003932,
 -0.00002925,0.00003344,0.00002215,-0.00003643,-0.00004139,0.00001676,0
 .00004821,-0.00001861,0.00001130,0.00001956,0.00012517,-0.00007793,0.0
 0021859,-0.00012560,-0.00003008,-0.00008383,0.00001050,0.00003859,0.00
 003701,0.00000446,0.00004709,-0.00001586,0.00000623,0.00009705,-0.0000
 9606,0.00012738,0.00000101,0.00021663,0.00006705,-0.00016011,0.0000628
 8,-0.00031268,-0.00030249,0.00020324,0.00017259,-0.00005513,-0.0000448
 5,0.00010254,0.00011449,-0.00003224,-0.00011754,-0.00070443,0.00077476
 ,-0.00051207,0.00010312,0.00010421,0.00018529,0.00018248,-0.00009843,-
 0.00041222,-0.00011004,-0.00007525,-0.00092771,0.00376461,0.00327369,0
 .02459074,0.21321391,0.,0.,0.,0.,0.,0.,-0.00054084,-0.00028158,0.00023
 284,0.00067724,0.00129434,0.00025787,0.,0.,0.,0.00152933,-0.00055052,-
 0.00046487,-0.00142103,-0.00039957,0.00051149,0.,0.,0.,0.00024874,-0.0
 0067066,-0.00108741,0.00122412,-0.00029642,0.00028839,-0.01836343,0.00
 431238,-0.04027016,0.00325936,0.00364313,0.00571983,-0.00458000,-0.002
 65295,0.00273969,0.00146421,0.00041141,-0.00109436,0.00757876,-0.00251
 670,0.00394217,-0.00258708,-0.00119216,-0.00371755,0.00030953,-0.00001
 714,0.00019411,-0.00183309,-0.00260210,0.00559530,0.00332536,0.0006970
 7,-0.00141610,-0.00044494,-0.00040623,0.00087897,0.00174217,-0.0019001
 1,-0.00406860,0.00000906,-0.00009766,-0.00012240,-0.00270142,0.0030829
 0,0.00388042,-0.00023889,-0.00010775,0.00116614,-0.00047386,0.00369074
 ,-0.00147596,0.00012930,0.00004837,0.00004904,0.00008612,0.00629465,-0
 .07566262,0.04061669,0.00594341,-0.03778333,-0.09188743,0.00694990,-0.
 21496164,-0.00097980,0.00026266,0.00035622,-0.00130671,-0.00060267,-0.
 00271493,-0.00091571,-0.00105789,-0.00371784,0.00009594,-0.00035488,-0
 .00046797,0.00012073,0.00026140,-0.00064274,-0.00016385,-0.00062246,0.
 00155401,-0.00088009,-0.00106288,0.00298818,-0.00048349,-0.00073132,-0
 .00078265,-0.00008066,0.00084504,0.00083228,0.00009313,-0.00008359,-0.
 00036332,-0.00080142,-0.00120115,0.00110133,0.00012345,0.00005157,-0.0
 0026091,-0.00006142,-0.00026512,-0.00009151,-0.00013642,-0.00000371,0.
 00023466,0.00008057,0.00010684,0.00000058,0.00015635,-0.00026374,-0.00
 003461,-0.00002004,0.00003861,-0.00002802,-0.00007246,0.00006494,-0.00
 001341,-0.00003142,-0.00013596,0.00005902,-0.00004094,-0.00010603,-0.0
 0005318,0.00018397,0.00001319,0.00017324,0.00002180,0.00028855,-0.0000
 3903,0.00019132,-0.00002371,0.00023448,-0.00011108,0.00048318,-0.00014
 909,0.00011212,0.00039616,0.00003244,-0.00009504,-0.00016892,-0.000047
 92,-0.00000420,0.00009898,-0.00011350,-0.00012039,0.00035900,0.0003800
 9,0.00008829,-0.00049325,0.00005711,0.00133371,0.00128954,-0.00064639,
 -0.00041768,0.00073628,0.00017383,0.00055779,0.00062149,-0.00060048,-0
 .00078999,0.00146934,0.00193091,0.00131400,-0.00011752,0.00157102,-0.0
 0013884,-0.00030825,-0.00043215,-0.00060265,-0.00096480,-0.00020132,0.
 00003940,0.00654454,-0.00651960,-0.09630220,-0.07294856,1.10307012,0.,
 0.,0.,0.,0.,0.,0.00013480,0.00029454,0.00003196,0.00013044,0.00019613,
 -0.00002585,0.,0.,0.,0.00037333,-0.00011630,-0.00011291,-0.00022688,-0
 .00007490,0.00010371,0.,0.,0.,0.00037603,-0.00053185,-0.00031031,-0.00
 002629,-0.00001601,-0.00009577,-0.00765669,0.00048086,-0.00759749,0.00
 116819,0.00077916,0.00093003,-0.00219130,-0.00067387,0.00190898,0.0007
 9212,-0.00010846,-0.00117957,0.00195849,-0.00018796,0.00057728,-0.0010
 4217,-0.00003226,-0.00062592,0.00013237,-0.00014264,-0.00032283,0.0001
 2560,-0.00052304,0.00146938,0.00056084,0.00048780,-0.00044031,0.000027
 17,-0.00023164,0.00030875,0.00034022,-0.00054363,-0.00098899,-0.000033
 00,-0.00006026,-0.00010317,-0.00003350,0.00178129,0.00121217,-0.000624
 81,-0.00108718,0.00000569,-0.00028692,0.00072925,-0.00016923,0.0000029
 8,-0.00006718,0.00004082,-0.01982995,-0.00176579,-0.01004312,-0.086108
 32,0.00053801,0.00944536,-0.08536472,-0.00541064,-0.03768470,-0.000506
 65,-0.00068765,-0.00209438,0.00401183,-0.00290951,0.02564820,0.0037255
 7,0.00145964,0.02479657,0.00055267,0.00047533,0.00048568,-0.00041748,0
 .00034692,0.00036197,-0.00013509,0.00062057,-0.00096667,-0.00052512,0.
 00072988,-0.00185230,0.00013177,-0.00033600,0.00003289,-0.00010484,0.0
 0025494,0.00018313,-0.00002169,0.00001485,-0.00011278,-0.00012230,-0.0
 0023933,0.00021121,0.00004035,-0.00003272,-0.00003999,-0.00001201,-0.0
 0005769,-0.00002728,0.00003419,0.00001958,0.00007925,0.00002461,-0.000
 00841,0.00002076,0.00006398,-0.00005481,-0.00005969,-0.00001229,0.0000
 3587,-0.00000492,0.00002067,0.00006554,0.00002034,-0.00000554,-0.00006
 187,0.00003012,-0.00001412,-0.00003173,-0.00000897,0.00005161,-0.00001
 633,-0.00000904,0.00001033,0.00004348,-0.00000058,-0.00023406,0.000006
 92,-0.00011929,0.00007056,0.00004578,0.00002595,0.00003435,0.00007683,
 -0.00000239,0.00004860,-0.00004807,0.00001784,0.00000565,-0.00002008,0
 .00000972,-0.00016351,0.00003124,0.00005008,-0.00001555,-0.00007524,-0
 .00001843,-0.00003649,0.00057463,-0.00034953,-0.00004088,0.00027017,0.
 00018427,0.00014343,0.00006022,-0.00008726,-0.00029664,0.00030539,0.00
 036313,0.00052784,-0.00006835,-0.00027317,-0.00005718,-0.00023497,0.00
 002554,-0.00016814,0.00018210,0.00002142,0.00260107,-0.00026626,-0.001
 21505,-0.32167903,-0.01630460,0.02557985,0.53067665,0.,0.,0.,0.,0.,0.,
 0.00013849,0.00021601,0.00000600,0.00001121,-0.00000879,-0.00005020,0.
 ,0.,0.,0.00005989,-0.00000421,-0.00001642,-0.00003643,0.00000282,0.000
 01882,0.,0.,0.,-0.00009222,0.00014846,0.00017183,0.00017019,0.00000380
 ,0.00008573,-0.00068250,-0.00128808,-0.00091307,0.00017603,0.00030374,
 -0.00013918,-0.00097717,-0.00015427,0.00102054,0.00004688,-0.00047404,
 -0.00106168,0.00013056,0.00030482,0.00016376,0.00033789,-0.00017245,-0
 .00006842,-0.00001605,0.00012411,0.00021653,-0.00000782,0.00011407,0.0
 0014065,0.00004565,-0.00006618,0.00001706,-0.00004209,0.00006143,0.000
 04243,0.00004237,-0.00016264,-0.00025568,-0.00000828,-0.00003245,-0.00
 004404,-0.00024836,-0.00083749,-0.00056953,0.00012068,0.00009712,0.000
 35239,0.00000565,0.00002857,0.00001792,-0.00000231,0.00000406,-0.00002
 985,0.00015544,-0.00049067,-0.00012975,-0.00461946,-0.06392640,0.00017
 553,0.00131890,0.02612273,0.00211605,0.00125871,-0.00050367,-0.0002473
 2,-0.00084980,0.00577695,-0.02820340,0.00156811,0.00773449,0.02823447,
 0.00037128,-0.00008958,-0.00002170,-0.00023589,0.00025998,-0.00005192,
 0.00002251,0.00013415,-0.00034100,-0.00052703,-0.00033458,0.00033835,-
 0.00012039,-0.00004590,0.00004927,0.00000154,-0.00009780,0.00003613,0.
 00002171,-0.00000491,0.00004421,0.00017662,0.00028434,-0.00034277,-0.0
 0002739,-0.00003485,0.00003706,0.00003180,0.00006217,0.00001356,0.0000
 2725,0.00001318,-0.00001299,-0.00004217,-0.00002742,0.00001065,0.00010
 164,0.00004957,-0.00000599,-0.00003016,-0.00001837,0.00000202,0.000002
 32,-0.00000329,-0.00000257,-0.00000966,-0.00000341,0.00000113,-0.00001
 376,-0.00000518,0.00001227,0.00001101,-0.00000122,-0.00000880,0.000006
 39,0.00000058,-0.00000726,-0.00001595,0.00003518,-0.00005252,0.0000332
 9,-0.00000660,0.00001597,-0.00000499,-0.00001189,-0.00000642,-0.000010
 97,-0.00001262,-0.00000316,-0.00000482,-0.00002419,0.00003833,-0.00002
 091,-0.00001649,-0.00006966,-0.00002681,0.00006763,-0.00002258,0.00002
 530,-0.00002779,0.00007120,-0.00000726,-0.00002562,-0.00003856,-0.0000
 4007,-0.00002233,0.00001439,0.00009562,0.00004445,-0.00025971,0.000010
 50,0.00002838,0.00004922,-0.00003994,0.00001044,0.00002240,0.00014162,
 -0.00003332,-0.00000427,-0.00130402,-0.00523560,-0.00222668,-0.0193599
 0,-0.06204527,0.00195874,0.02830207,0.07947170,0.,0.,0.,0.,0.,0.,0.000
 23531,0.00022006,-0.00004140,-0.00020106,-0.00038215,-0.00009003,0.,0.
 ,0.,-0.00047015,0.00015453,0.00016105,0.00040894,0.00011285,-0.0001574
 8,0.,0.,0.,0.00002171,-0.00000554,0.00013130,-0.00048492,0.00007543,-0
 .00013441,0.00510873,-0.00109908,0.00919447,-0.00065649,-0.00090294,-0
 .00124858,0.00074223,0.00061989,-0.00026552,-0.00063819,-0.00072931,-0
 .00046386,-0.00186108,0.00086876,-0.00077711,0.00063368,0.00043562,0.0
 0099485,-0.00009726,-0.00003329,-0.00014992,0.00043770,0.00079149,-0.0
 0162870,-0.00090932,-0.00027040,0.00045832,0.00012482,0.00012810,-0.00
 032361,-0.00038939,0.00049497,0.00096453,0.00000750,0.00001339,0.00003
 593,0.00085582,-0.00030554,-0.00105533,-0.00014100,-0.00024176,-0.0006
 7976,0.00015424,-0.00101804,0.00033041,-0.00002809,-0.00000100,-0.0000
 1245,-0.01331764,-0.00011208,-0.03950831,-0.02149231,-0.00671248,-0.19
 313020,-0.01584528,-0.00001320,0.00886654,-0.00604298,-0.00233969,0.00
 050782,0.00110912,-0.00020064,-0.02871245,0.00099481,0.00146266,-0.026
 61671,-0.00061823,0.00179013,-0.00090056,0.00057983,0.00030942,-0.0000
 7678,0.00071592,-0.00047522,0.00084490,-0.00385640,0.00146205,0.000332
 97,0.00006541,0.00026437,0.00017131,0.00006254,-0.00023851,-0.00027727
 ,-0.00001786,0.00001344,0.00010344,0.00015622,0.00027311,-0.00018828,-
 0.00003085,0.00000237,0.00005625,0.00000400,0.00006384,0.00002363,0.00
 001331,-0.00001241,-0.00007838,-0.00001328,-0.00001380,-0.00000715,-0.
 00006380,0.00004386,0.00002676,0.00001254,-0.00001361,0.00000598,0.000
 01311,-0.00003436,-0.00000201,0.00000164,0.00004443,-0.00002151,0.0000
 1776,0.00003426,0.00001202,-0.00005871,0.00000025,-0.00003700,-0.00000
 989,-0.00008133,0.00001171,-0.00001642,0.00001790,-0.00003127,0.000028
 11,-0.00011359,0.00002674,-0.00003181,-0.00011120,-0.00000707,0.000021
 08,0.00005730,0.00000738,0.00000096,-0.00002920,0.00002004,0.00001795,
 -0.00006449,-0.00008836,-0.00001217,0.00011360,-0.00000213,-0.00019420
 ,-0.00043239,0.00022798,0.00012877,-0.00025466,-0.00007558,-0.00014888
 ,-0.00014038,0.00013515,0.00020084,-0.00032405,-0.00047147,-0.00043975
 ,0.00005006,-0.00018221,0.00005166,0.00014962,0.00005254,0.00013206,0.
 00012022,0.00002376,-0.00042503,-0.00061266,0.00259729,0.06679038,0.00
 533303,-0.13254288,-0.08125728,-0.00887144,0.44924649,0.,0.,0.,0.,0.,0
 .,0.00015735,0.00014001,-0.00012696,-0.00002064,-0.00008612,-0.0000660
 0,0.,0.,0.,0.00037571,0.00007177,-0.00020553,-0.00005124,-0.00004046,0
 .00005254,0.,0.,0.,-0.00007114,0.00002661,0.00021715,-0.00051072,0.000
 07642,-0.00015975,-0.02295870,0.00256487,-0.02194383,0.00114729,-0.000
 51858,-0.00133957,-0.00031685,0.00045275,0.00070198,0.00017103,-0.0001
 9515,-0.00027898,-0.00258646,0.00117136,-0.00345761,0.00029530,0.00111
 065,0.00164219,0.00006062,-0.00019202,-0.00047018,0.00076565,-0.000501
 14,0.00121568,-0.00014507,0.00117294,-0.00068938,0.00007152,-0.0004601
 8,0.00074345,-0.00063076,-0.00027722,0.00030279,-0.00007867,-0.0000406
 5,-0.00013964,0.00121421,-0.00063025,-0.00073575,-0.00006262,-0.000537
 85,-0.00004537,-0.00027405,0.00009763,0.00013536,0.00000820,-0.0001232
 0,0.00005171,-0.00637087,0.00037473,0.00301178,-0.00603533,-0.00127493
 ,-0.00931689,0.02355856,0.00185676,-0.03825822,0.00163864,0.00010962,-
 0.00153407,0.00022699,-0.00048310,0.00228297,0.00041299,0.00001110,0.0
 0284681,0.00022745,-0.00023715,0.00032600,-0.00022965,0.00005905,0.000
 11179,-0.00025280,0.00052201,-0.00045564,0.00090909,-0.00003071,-0.000
 88693,0.00017813,-0.00035512,0.00008439,-0.00010431,0.00018557,0.00019
 105,-0.00001552,0.00001101,-0.00011428,-0.00014037,-0.00015857,0.00016
 158,0.00002794,-0.00005592,-0.00003760,-0.00000337,-0.00005910,-0.0000
 2295,0.00004186,0.00001913,0.00009749,0.00002334,-0.00001174,0.0000194
 7,0.00007827,-0.00006278,-0.00005619,-0.00002113,0.00004881,-0.0000087
 9,0.00003576,0.00007535,0.00002820,-0.00000790,-0.00006680,0.00003365,
 -0.00000879,-0.00003098,-0.00000162,0.00004813,-0.00001752,-0.00002725
 ,0.00000823,0.00001820,0.00000379,-0.00033827,0.00002002,-0.00018341,0
 .00009795,-0.00001523,0.00004347,0.00002472,0.00004674,-0.00000777,0.0
 0008623,-0.00003616,0.00003078,0.00001581,-0.00003182,0.00001310,-0.00
 020941,-0.00000270,0.00005067,-0.00001272,-0.00003523,-0.00001972,-0.0
 0013803,0.00078075,-0.00044513,-0.00026219,0.00054238,0.00020312,0.000
 08933,0.00007378,-0.00013534,-0.00042583,0.00018596,0.00026923,0.00087
 327,-0.00002507,0.00002274,-0.00006204,-0.00037631,-0.00002202,-0.0001
 2872,-0.00005105,0.00001420,0.00148171,0.00067158,-0.00035696,-0.14092
 549,-0.01192693,0.13514776,-0.02194152,-0.00598756,0.07043777,0.171489
 79,0.,0.,0.,0.,0.,0.,0.00026055,0.00009484,-0.00013080,-0.00009319,-0.
 00024876,-0.00007658,0.,0.,0.,0.00014768,-0.00040173,0.00006808,-0.000
 25483,-0.00002053,0.00007345,0.,0.,0.,0.00007498,-0.00008728,0.0000168
 5,0.00030969,-0.00006836,0.00011206,0.00221783,-0.00711036,0.00274431,
 -0.00114515,-0.00021844,-0.00296617,0.00068897,0.00076236,0.00004568,-
 0.00014830,-0.00008157,-0.00010800,0.00218622,0.00077186,0.00199336,0.
 00006311,-0.00054450,-0.00120995,-0.00001693,0.00021130,0.00032593,-0.
 00048099,0.00026751,0.00268064,0.00153737,-0.00113097,0.00022043,-0.00
 007845,0.00062429,-0.00037012,-0.00082039,0.00016867,0.00094540,-0.000
 01724,-0.00010348,-0.00009013,-0.00087557,0.00054444,0.00012942,-0.000
 36359,0.00002352,0.00014722,-0.00005743,0.00128457,-0.00021389,-0.0000
 2822,0.00000105,-0.00003478,0.00113655,0.00592793,-0.00124393,-0.00083
 066,0.00689950,-0.00177534,0.00091086,0.01298189,0.01073365,0.00053678
 ,-0.00015567,-0.00092318,-0.00012898,-0.00059951,0.00198262,-0.0001612
 3,-0.00018036,-0.00107246,0.00003534,-0.00009097,0.00004767,0.00009246
 ,0.00005714,-0.00005374,-0.00016068,0.00017677,-0.00006662,-0.00065758
 ,-0.00055934,0.00167211,-0.00039936,-0.00033581,0.00004395,-0.00004170
 ,0.00009086,0.00023360,0.00002274,-0.00000900,-0.00004317,0.00000812,0
 .00008930,-0.00004074,0.00000541,-0.00005608,-0.00002119,0.00001275,-0
 .00000232,-0.00001142,0.00002821,0.00002813,0.00005389,-0.00002686,-0.
 00002622,0.00001676,0.00028037,-0.00006152,-0.00009727,-0.00006258,-0.
 00001339,0.00000279,-0.00000256,0.00003530,0.00001454,-0.00005610,-0.0
 0005968,0.00004606,-0.00002589,-0.00003329,0.00001508,0.00005656,-0.00
 001861,-0.00002969,0.00001850,0.00002338,-0.00002119,-0.00010302,0.000
 04640,-0.00016086,0.00006737,0.00010336,0.00005176,0.00000964,0.000024
 37,-0.00003976,-0.00000685,-0.00006387,0.00001489,0.00000429,-0.000073
 57,0.00002883,-0.00010591,0.00001433,-0.00010510,-0.00002544,-0.000018
 29,-0.00001422,0.00065129,0.00054882,-0.00048847,-0.00027162,0.0001615
 1,0.00018007,0.00015234,0.00005491,-0.00018294,-0.00025580,0.00073551,
 0.00024874,0.00060694,-0.00030799,0.00005719,-0.00016107,-0.00023702,-
 0.00005342,0.00004791,-0.00002498,-0.00000329,0.00069985,-0.00096339,-
 0.00256940,-0.01144018,-0.08303527,0.04356250,-0.00626000,0.01462444,0
 .01025921,0.01289789,0.05049410,0.,0.,0.,0.,0.,0.,0.00040369,-0.000005
 39,-0.00034800,-0.00058403,-0.00112158,-0.00020537,0.,0.,0.,-0.0012955
 4,0.00120909,0.00014303,0.00136533,0.00036913,-0.00045502,0.,0.,0.,-0.
 00027095,0.00060846,0.00091712,-0.00089591,0.00023617,-0.00016532,-0.0
 1608625,0.00240742,-0.02329668,-0.00408361,-0.00476994,-0.00601854,0.0
 0409368,0.00182560,-0.00355981,-0.00118956,-0.00019587,0.00132607,-0.0
 0678266,0.00196452,-0.00368256,0.00214884,0.00097470,0.00307671,-0.000
 30830,0.00011629,-0.00001675,0.00152370,0.00453650,-0.00914465,-0.0043
 4872,0.00014001,0.00108820,0.00097679,-0.00016374,-0.00081263,-0.00183
 534,0.00150751,0.00359780,-0.00004056,0.00013049,0.00005818,0.00148200
 ,-0.00236252,-0.00363919,-0.00010121,0.00044584,-0.00066218,0.00108212
 ,-0.00467949,0.00112952,-0.00014520,-0.00001641,-0.00016384,-0.0136824
 4,-0.00096767,0.01324302,0.00360636,-0.00022990,0.01080553,-0.01372764
 ,0.01008640,-0.10303009,0.00250498,-0.00149140,-0.00346158,0.00037220,
 0.00128048,-0.00267041,0.00020392,0.00012941,-0.00266805,-0.00023615,0
 .00007749,0.00030521,0.00000906,0.00002681,0.00043774,-0.00025417,0.00
 132295,-0.00100795,0.00141744,0.00148980,-0.00383835,0.00021907,0.0003
 4047,0.00074940,0.00005752,-0.00056039,-0.00052676,-0.00006843,0.00006
 262,0.00022988,0.00050186,0.00087225,-0.00074590,-0.00008314,-0.000065
 33,0.00017507,0.00004776,0.00017527,0.00006369,0.00011603,0.00001162,-
 0.00013008,-0.00005855,-0.00008901,0.00000441,0.00003081,0.00012939,-0
 .00005797,-0.00001626,-0.00000541,0.00001252,0.00005580,-0.00001623,0.
 00003632,-0.00001394,0.00007026,-0.00000976,0.00003264,0.00007497,0.00
 006019,-0.00013359,-0.00002266,-0.00018275,-0.00001134,-0.00027478,0.0
 0002393,-0.00022494,-0.00000530,-0.00033806,0.00011511,-0.00025329,0.0
 0017977,-0.00008984,-0.00035547,-0.00007408,0.00008215,0.00010564,0.00
 007235,0.00002721,-0.00012730,0.00008411,0.00003359,-0.00018597,-0.000
 37196,-0.00006986,0.00036045,-0.00002963,-0.00068785,-0.00057842,-0.00
 003309,0.00005392,-0.00021159,0.00008379,-0.00041611,-0.00045838,0.000
 34477,0.00048910,-0.00054244,-0.00144078,-0.00034577,0.00009256,-0.001
 01817,0.00001381,-0.00000543,0.00024638,0.00045214,0.00056075,0.000172
 19,-0.00022544,-0.00434231,0.00319423,0.12934242,0.04579510,-0.6091269
 4,0.05440665,0.00837276,-0.04501422,-0.13831297,-0.06459760,0.78728454
 \\0.,0.,0.,0.,0.,0.,0.,0.,0.,0.,0.,0.,0.,0.,0.,0.,0.,0.,0.,0.,0.,0.,0.
 ,0.,0.,0.,0.,0.,0.,0.,0.,0.,0.,0.,0.,0.,0.,0.,0.,0.,0.,0.,0.,0.,0.,0.,
 0.,0.,0.,0.,0.,0.,0.,0.,0.,0.,0.,0.,0.,0.,0.,0.,0.,0.,0.,0.,0.,0.,0.,0
 .,0.,0.,0.,0.,0.,0.,0.,0.,0.,0.,0.,0.,0.,0.,0.,0.,0.,0.,0.,0.,0.,0.,0.
 ,0.,0.,0.,0.,0.,0.,0.,0.,0.,0.,0.,0.,0.,0.,0.,0.,0.,0.,0.,0.,0.,0.,0.,
 0.,0.,0.,0.,0.,0.,0.,0.,0.,0.,0.,0.,0.,0.,0.,0.,0.,0.,0.,0.,0.,0.,0.,0
 .,0.,0.,0.,0.,0.,0.,0.,0.,0.,0.,0.,0.,0.,0.,0.,0.,0.,0.,0.,0.,0.,0.,0.
 ,0.,0.,0.,0.,0.,0.,0.,0.,0.,0.,0.,0.,0.,0.,0.,0.,0.,0.,0.,0.,0.,0.,0.,
 0.,0.,0.,0.,0.,0.,0.,0.,0.,0.,0.,0.,0.,0.,0.,0.,0.,0.,0.,0.,0.\\\@


 CURIOUSER AND CURIOUSER

                  -- ALICE, IN WONDERLAND
 Job cpu time:       2 days 16 hours 41 minutes 20.9 seconds.
 Elapsed time:       0 days  1 hours  2 minutes 28.1 seconds.
 File lengths (MBytes):  RWF=   4356 Int=      0 D2E=      0 Chk=     40 Scr=      1
 Normal termination of Gaussian 16 at Wed Dec 18 21:08:02 2019.
