 Entering Gaussian System, Link 0=g16
 Input=2_test_opt_freq_from_IRC_TBAB.com
 Output=2_test_opt_freq_from_IRC_TBAB.log
 Initial command:
 /opt/ohpc/pub/apps/gaussian/avx2/g16/l1.exe "/scratch/g16-tmp/Gau-1802589.inp" -scrdir="/scratch/g16-tmp/"
 Entering Link 1 = /opt/ohpc/pub/apps/gaussian/avx2/g16/l1.exe PID=   1802590.
  
 Copyright (c) 1988-2017, Gaussian, Inc.  All Rights Reserved.
  
 This is part of the Gaussian(R) 16 program.  It is based on
 the Gaussian(R) 09 system (copyright 2009, Gaussian, Inc.),
 the Gaussian(R) 03 system (copyright 2003, Gaussian, Inc.),
 the Gaussian(R) 98 system (copyright 1998, Gaussian, Inc.),
 the Gaussian(R) 94 system (copyright 1995, Gaussian, Inc.),
 the Gaussian 92(TM) system (copyright 1992, Gaussian, Inc.),
 the Gaussian 90(TM) system (copyright 1990, Gaussian, Inc.),
 the Gaussian 88(TM) system (copyright 1988, Gaussian, Inc.),
 the Gaussian 86(TM) system (copyright 1986, Carnegie Mellon
 University), and the Gaussian 82(TM) system (copyright 1983,
 Carnegie Mellon University). Gaussian is a federally registered
 trademark of Gaussian, Inc.
  
 This software contains proprietary and confidential information,
 including trade secrets, belonging to Gaussian, Inc.
  
 This software is provided under written license and may be
 used, copied, transmitted, or stored only in accord with that
 written license.
  
 The following legend is applicable only to US Government
 contracts under FAR:
  
                    RESTRICTED RIGHTS LEGEND
  
 Use, reproduction and disclosure by the US Government is
 subject to restrictions as set forth in subparagraphs (a)
 and (c) of the Commercial Computer Software - Restricted
 Rights clause in FAR 52.227-19.
  
 Gaussian, Inc.
 340 Quinnipiac St., Bldg. 40, Wallingford CT 06492
  
  
 ---------------------------------------------------------------
 Warning -- This program may not be used in any manner that
 competes with the business of Gaussian, Inc. or will provide
 assistance to any competitor of Gaussian, Inc.  The licensee
 of this program is prohibited from giving any competitor of
 Gaussian, Inc. access to this program.  By using this program,
 the user acknowledges that Gaussian, Inc. is engaged in the
 business of creating and licensing software in the field of
 computational chemistry and represents and warrants to the
 licensee that it is not a competitor of Gaussian, Inc. and that
 it will not use this program in any manner prohibited above.
 ---------------------------------------------------------------
  

 Cite this work as:
 Gaussian 16, Revision B.01,
 M. J. Frisch, G. W. Trucks, H. B. Schlegel, G. E. Scuseria, 
 M. A. Robb, J. R. Cheeseman, G. Scalmani, V. Barone, 
 G. A. Petersson, H. Nakatsuji, X. Li, M. Caricato, A. V. Marenich, 
 J. Bloino, B. G. Janesko, R. Gomperts, B. Mennucci, H. P. Hratchian, 
 J. V. Ortiz, A. F. Izmaylov, J. L. Sonnenberg, D. Williams-Young, 
 F. Ding, F. Lipparini, F. Egidi, J. Goings, B. Peng, A. Petrone, 
 T. Henderson, D. Ranasinghe, V. G. Zakrzewski, J. Gao, N. Rega, 
 G. Zheng, W. Liang, M. Hada, M. Ehara, K. Toyota, R. Fukuda, 
 J. Hasegawa, M. Ishida, T. Nakajima, Y. Honda, O. Kitao, H. Nakai, 
 T. Vreven, K. Throssell, J. A. Montgomery, Jr., J. E. Peralta, 
 F. Ogliaro, M. J. Bearpark, J. J. Heyd, E. N. Brothers, K. N. Kudin, 
 V. N. Staroverov, T. A. Keith, R. Kobayashi, J. Normand, 
 K. Raghavachari, A. P. Rendell, J. C. Burant, S. S. Iyengar, 
 J. Tomasi, M. Cossi, J. M. Millam, M. Klene, C. Adamo, R. Cammi, 
 J. W. Ochterski, R. L. Martin, K. Morokuma, O. Farkas, 
 J. B. Foresman, and D. J. Fox, Gaussian, Inc., Wallingford CT, 2016.
 
 ******************************************
 Gaussian 16:  ES64L-G16RevB.01 20-Dec-2017
                 7-Mar-2023 
 ******************************************
 %nprocshared=64
 Will use up to   64 processors via shared memory.
 %mem=64GB
 %chk=2_test_opt_freq_from_IRC_TBAB.chk
 ----------------------------------------------------------------------
 # opt=(calcall,tight,cartesian) freq cam-b3lyp/gen nosymm scf=(qc,maxc
 ycle=1024,vshift=100) pseudo=read
 ----------------------------------------------------------------------
 1/7=10,10=4,18=10,26=3,38=1/1,3;
 2/12=2,15=1,17=6,18=5,29=2,40=1/2;
 3/5=7,11=2,16=1,17=8,25=1,30=1,71=2,74=-40,140=1/1,2,3;
 4//1;
 5/5=2,7=1024,8=3,10=100,38=5/8;
 8/6=4,10=90,11=11/1;
 11/6=1,8=1,9=11,15=111,16=1,31=1/1,2,10;
 10/6=1,31=1/2;
 6/7=2,8=2,9=2,10=2,18=1,28=1/1;
 7/7=1,10=1,25=1,30=1/1,2,3,16;
 1/7=10,10=4,18=10,26=3/3(3);
 2/15=1,29=1/2;
 7/7=1,8=1,9=1,25=1,30=1,44=-1/16;
 99/12=1/99;
 2/15=1,29=1/2;
 3/5=7,6=1,11=2,16=1,17=8,25=1,30=1,71=2,74=-40,82=7,140=1/1,2,3;
 4/5=5,16=3,69=1/1;
 5/5=2,7=1024,8=3,10=100,38=5/8;
 8/6=4,10=90,11=11/1;
 11/6=1,8=1,9=11,15=111,16=1,31=1/1,2,10;
 10/6=1,31=1/2;
 7/7=1,10=1,25=1,30=1/1,2,3,16;
 1/7=10,10=4,18=10,26=3/3(-8);
 2/15=1,29=1/2;
 6/7=2,8=2,9=2,10=2,18=1,19=2,28=1/1;
 7/7=1,8=1,9=1,25=1,30=1,44=-1/16;
 99/12=1/99;
 -----------------------------
 2_test_opt_freq_from_IRC_TBAB
 -----------------------------
 Symbolic Z-matrix:
 Charge =  0 Multiplicity = 1
 Li                   -1   -1.73232  -6.83326  -3.63091 
 N                    -1   -1.35894  -5.47045  -2.36816 
 C                    0    -2.0619   -5.83532  -1.25701 
 Cl                   0    -2.86153  -7.37544  -1.26108 
 N                    -1    1.25208   0.80418  -2.59291 
 C                    0     2.1686   -0.1918   -2.52811 
 Cl                   0     3.72884  -0.06406  -3.25961 
 N                    -1   -4.40363   0.28022   0.89226 
 C                    0    -4.57937   0.2003   -0.44766 
 Cl                   0    -5.93715   0.89869  -1.2532 
 Zn                   0    -0.96077  -1.87961  -0.22608 
 N                    0    -1.24915  -3.83204  -0.85485 
 C                    0    -2.0042   -4.84155  -0.32492 
 Cl                   0    -2.70625  -4.76884   1.23134 
 N                    0    -2.68657  -0.86906  -0.01677 
 C                    0    -3.54447  -0.49634  -1.01427 
 Cl                   0    -3.26923  -0.92197  -2.6654 
 N                    0     0.38642  -0.94199  -1.44329 
 C                    0     1.65937  -1.25639  -1.82801 
 Cl                   0     2.39688  -2.76626  -1.43346 
 C                    0    -0.8928   -4.2544   -2.07109 
 H                    0    -0.28546  -3.66269  -2.74049 
 C                    0    -3.27245  -0.37031   1.10288 
 H                    0    -2.8407   -0.50445   2.08525 
 C                    0     0.20705   0.30641  -1.94347 
 H                    0    -0.73059   0.83336  -1.82584 
 C                    0     1.13767  -1.3469    2.04791 
 C                    0    -0.08405  -0.71433   2.49574 
 O                    0    -0.15714  -1.93622   1.672 
 C                    0     1.98547  -2.15905   2.97247 
 H                    0    -0.43903   0.18499   2.0093 
 H                    0    -0.41564  -0.86432   3.51689 
 H                    0     2.57632  -2.8993    2.42751 
 H                    0     1.3652   -2.66951   3.71235 
 H                    0     2.65726  -1.47306   3.49561 
 H                    0     1.64416  -0.89289   1.20062 
 N                    0     2.13803   3.87097   0.23899 
 C                    0     0.8544    3.04731   0.36805 
 H                    0     0.95333   2.50754   1.3164 
 H                    0     0.88753   2.33554  -0.45736 
 C                    0     1.91723   4.99015  -0.74784 
 H                    0     1.12212   5.61371  -0.34279 
 H                    0     1.5346    4.51324  -1.654 
 C                    0     3.22851   2.95949  -0.30622 
 H                    0     4.15439   3.5322   -0.23473 
 H                    0     2.99532   2.8042   -1.36276 
 C                    0     2.60722   4.37507   1.59343 
 H                    0     3.55071   4.89327   1.41172 
 H                    0     2.79295   3.48412   2.19636 
 Br                   0     1.53555   1.75049   3.72165 
 C                    0     1.65245   5.25167   2.385 
 C                    0     2.32516   5.66874   3.69545 
 H                    0     0.76352   4.67282   2.6443 
 H                    0     1.34211   6.14308   1.82568 
 C                    0     1.41918   6.54579   4.55329 
 H                    0     2.58251   4.75723   4.24499 
 H                    0     3.26247   6.19934   3.48255 
 H                    0     1.91349   6.82919   5.48605 
 H                    0     1.13904   7.46687   4.03094 
 H                    0     0.49943   6.01447   4.81419 
 C                    0     3.39568   1.61303   0.39528 
 C                    0     4.82657   1.09771   0.22065 
 H                    0     2.7005    0.89352  -0.04636 
 H                    0     3.1524    1.6632    1.46158 
 C                    0     5.0043   -0.30449   0.79376 
 H                    0     5.09581   1.09486  -0.84183 
 H                    0     5.51783   1.7888    0.71966 
 H                    0     6.03985  -0.64244   0.70027 
 H                    0     4.73537  -0.32947   1.85427 
 H                    0     4.37265  -1.0258    0.2661 
 C                    0    -0.47415   3.79991   0.31912 
 C                    0    -1.60104   2.87816   0.79666 
 H                    0    -0.6943    4.13847  -0.69934 
 H                    0    -0.4659    4.68754   0.95503 
 C                    0    -2.97377   3.53832   0.71918 
 H                    0    -1.60858   1.96032   0.19663 
 H                    0    -1.38867   2.57329   1.82796 
 H                    0    -3.75016   2.84696   1.05311 
 H                    0    -3.0155    4.43517   1.34621 
 H                    0    -3.21203   3.83667  -0.30702 
 C                    0     3.12226   5.8597   -1.08257 
 C                    0     2.72027   6.95936  -2.06937 
 H                    0     3.92616   5.26532  -1.52617 
 H                    0     3.52679   6.32677  -0.17891 
 C                    0     3.89213   7.86176  -2.44292 
 H                    0     2.3054    6.50114  -2.97486 
 H                    0     1.91508   7.56305  -1.63388 
 H                    0     3.58322   8.63845  -3.14668 
 H                    0     4.30677   8.35798  -1.56009 
 H                    0     4.6982    7.28923  -2.91176 
 

 GradGradGradGradGradGradGradGradGradGradGradGradGradGradGradGradGradGrad
 Berny optimization.
 Initialization pass.
 No Z-matrix variables, so optimization will use Cartesian coordinates.
 Trust Radius=3.00D-01 FncErr=1.00D-07 GrdErr=1.00D-06 EigMax=2.50D+02 EigMin=1.00D-04
 Number of steps in this run=    280 maximum allowed number of steps=    540.
 GradGradGradGradGradGradGradGradGradGradGradGradGradGradGradGradGradGrad

 Symmetry turned off by external request.
 Stoichiometry    C28H45BrCl6LiN7OZn
 Framework group  C1[X(C28H45BrCl6LiN7OZn)]
 Deg. of freedom   264
 Full point group                 C1      NOp   1
                          Input orientation:                          
 ---------------------------------------------------------------------
 Center     Atomic      Atomic             Coordinates (Angstroms)
 Number     Number       Type             X           Y           Z
 ---------------------------------------------------------------------
      1          3           0       -1.732322   -6.833262   -3.630913
      2          7           0       -1.358940   -5.470450   -2.368157
      3          6           0       -2.061900   -5.835320   -1.257009
      4         17           0       -2.861534   -7.375439   -1.261083
      5          7           0        1.252080    0.804181   -2.592906
      6          6           0        2.168604   -0.191803   -2.528113
      7         17           0        3.728843   -0.064058   -3.259614
      8          7           0       -4.403631    0.280215    0.892256
      9          6           0       -4.579365    0.200301   -0.447660
     10         17           0       -5.937154    0.898685   -1.253203
     11         30           0       -0.960765   -1.879607   -0.226081
     12          7           0       -1.249149   -3.832043   -0.854854
     13          6           0       -2.004204   -4.841548   -0.324918
     14         17           0       -2.706250   -4.768840    1.231344
     15          7           0       -2.686565   -0.869056   -0.016765
     16          6           0       -3.544465   -0.496340   -1.014269
     17         17           0       -3.269226   -0.921970   -2.665398
     18          7           0        0.386416   -0.941985   -1.443289
     19          6           0        1.659374   -1.256392   -1.828012
     20         17           0        2.396876   -2.766256   -1.433460
     21          6           0       -0.892795   -4.254402   -2.071087
     22          1           0       -0.285456   -3.662693   -2.740494
     23          6           0       -3.272450   -0.370312    1.102882
     24          1           0       -2.840699   -0.504453    2.085253
     25          6           0        0.207049    0.306410   -1.943471
     26          1           0       -0.730590    0.833362   -1.825837
     27          6           0        1.137672   -1.346895    2.047913
     28          6           0       -0.084049   -0.714328    2.495741
     29          8           0       -0.157139   -1.936217    1.672004
     30          6           0        1.985468   -2.159047    2.972473
     31          1           0       -0.439032    0.184989    2.009299
     32          1           0       -0.415644   -0.864320    3.516885
     33          1           0        2.576318   -2.899303    2.427508
     34          1           0        1.365204   -2.669514    3.712345
     35          1           0        2.657261   -1.473060    3.495613
     36          1           0        1.644164   -0.892889    1.200619
     37          7           0        2.138032    3.870974    0.238994
     38          6           0        0.854395    3.047307    0.368050
     39          1           0        0.953330    2.507540    1.316396
     40          1           0        0.887534    2.335535   -0.457361
     41          6           0        1.917232    4.990151   -0.747842
     42          1           0        1.122117    5.613709   -0.342790
     43          1           0        1.534596    4.513243   -1.654000
     44          6           0        3.228514    2.959490   -0.306217
     45          1           0        4.154394    3.532198   -0.234729
     46          1           0        2.995315    2.804204   -1.362762
     47          6           0        2.607224    4.375068    1.593425
     48          1           0        3.550710    4.893266    1.411716
     49          1           0        2.792948    3.484123    2.196360
     50         35           0        1.535550    1.750494    3.721648
     51          6           0        1.652452    5.251674    2.385002
     52          6           0        2.325164    5.668738    3.695451
     53          1           0        0.763524    4.672823    2.644300
     54          1           0        1.342109    6.143077    1.825677
     55          6           0        1.419183    6.545794    4.553286
     56          1           0        2.582510    4.757227    4.244987
     57          1           0        3.262474    6.199336    3.482547
     58          1           0        1.913489    6.829190    5.486052
     59          1           0        1.139043    7.466872    4.030941
     60          1           0        0.499425    6.014472    4.814187
     61          6           0        3.395684    1.613026    0.395279
     62          6           0        4.826565    1.097709    0.220654
     63          1           0        2.700499    0.893521   -0.046364
     64          1           0        3.152398    1.663203    1.461579
     65          6           0        5.004299   -0.304486    0.793764
     66          1           0        5.095810    1.094865   -0.841830
     67          1           0        5.517830    1.788802    0.719656
     68          1           0        6.039850   -0.642435    0.700274
     69          1           0        4.735367   -0.329465    1.854267
     70          1           0        4.372648   -1.025801    0.266104
     71          6           0       -0.474146    3.799906    0.319120
     72          6           0       -1.601044    2.878159    0.796661
     73          1           0       -0.694299    4.138465   -0.699335
     74          1           0       -0.465895    4.687544    0.955031
     75          6           0       -2.973774    3.538321    0.719177
     76          1           0       -1.608580    1.960315    0.196633
     77          1           0       -1.388674    2.573293    1.827955
     78          1           0       -3.750155    2.846958    1.053114
     79          1           0       -3.015498    4.435169    1.346211
     80          1           0       -3.212026    3.836666   -0.307020
     81          6           0        3.122256    5.859702   -1.082568
     82          6           0        2.720273    6.959359   -2.069368
     83          1           0        3.926159    5.265322   -1.526173
     84          1           0        3.526786    6.326766   -0.178908
     85          6           0        3.892130    7.861756   -2.442917
     86          1           0        2.305397    6.501138   -2.974862
     87          1           0        1.915081    7.563048   -1.633875
     88          1           0        3.583222    8.638449   -3.146683
     89          1           0        4.306769    8.357984   -1.560093
     90          1           0        4.698202    7.289234   -2.911760
 ---------------------------------------------------------------------
 Rotational constants (GHZ):           0.0650013           0.0306498           0.0285662
 General basis read from cards:  (5D, 7F)
 ======================================================================================================
                                       Pseudopotential Parameters
 ======================================================================================================
  Center     Atomic      Valence      Angular      Power
  Number     Number     Electrons     Momentum     of R      Exponent        Coefficient   SO-Coeffient
 ======================================================================================================
    1          3
                                   No pseudopotential on this center.
    2          7
                                   No pseudopotential on this center.
    3          6
                                   No pseudopotential on this center.
    4         17
                                   No pseudopotential on this center.
    5          7
                                   No pseudopotential on this center.
    6          6
                                   No pseudopotential on this center.
    7         17
                                   No pseudopotential on this center.
    8          7
                                   No pseudopotential on this center.
    9          6
                                   No pseudopotential on this center.
   10         17
                                   No pseudopotential on this center.
   11         30           12
                                      F and up 
                                                     1      386.7379660      -18.00000000    0.00000000
                                                     2       72.8587359     -124.35274030    0.00000000
                                                     2       15.9066170      -30.66018220    0.00000000
                                                     2        4.3502340      -10.63589890    0.00000000
                                                     2        1.2842199       -0.76836230    0.00000000
                                      S - F
                                                     0       19.0867858        3.00000000    0.00000000
                                                     1        5.0231080       22.52342250    0.00000000
                                                     2        1.2701744       48.44659420    0.00000000
                                                     2        1.0671287      -44.55601190    0.00000000
                                                     2        0.9264190       12.99839580    0.00000000
                                      P - F
                                                     0       43.4927750        5.00000000    0.00000000
                                                     1       20.8692669       20.74355890    0.00000000
                                                     2       21.7118378       90.30271580    0.00000000
                                                     2        6.3616915       74.66103160    0.00000000
                                                     2        1.2291195        9.88944240    0.00000000
                                      D - F
                                                     2       13.5851800       -4.84903590    0.00000000
                                                     2        9.8373050        3.69133790    0.00000000
                                                     2        0.8373113       -0.50373190    0.00000000
   12          7
                                   No pseudopotential on this center.
   13          6
                                   No pseudopotential on this center.
   14         17
                                   No pseudopotential on this center.
   15          7
                                   No pseudopotential on this center.
   16          6
                                   No pseudopotential on this center.
   17         17
                                   No pseudopotential on this center.
   18          7
                                   No pseudopotential on this center.
   19          6
                                   No pseudopotential on this center.
   20         17
                                   No pseudopotential on this center.
   21          6
                                   No pseudopotential on this center.
   22          1
                                   No pseudopotential on this center.
   23          6
                                   No pseudopotential on this center.
   24          1
                                   No pseudopotential on this center.
   25          6
                                   No pseudopotential on this center.
   26          1
                                   No pseudopotential on this center.
   27          6
                                   No pseudopotential on this center.
   28          6
                                   No pseudopotential on this center.
   29          8
                                   No pseudopotential on this center.
   30          6
                                   No pseudopotential on this center.
   31          1
                                   No pseudopotential on this center.
   32          1
                                   No pseudopotential on this center.
   33          1
                                   No pseudopotential on this center.
   34          1
                                   No pseudopotential on this center.
   35          1
                                   No pseudopotential on this center.
   36          1
                                   No pseudopotential on this center.
   37          7
                                   No pseudopotential on this center.
   38          6
                                   No pseudopotential on this center.
   39          1
                                   No pseudopotential on this center.
   40          1
                                   No pseudopotential on this center.
   41          6
                                   No pseudopotential on this center.
   42          1
                                   No pseudopotential on this center.
   43          1
                                   No pseudopotential on this center.
   44          6
                                   No pseudopotential on this center.
   45          1
                                   No pseudopotential on this center.
   46          1
                                   No pseudopotential on this center.
   47          6
                                   No pseudopotential on this center.
   48          1
                                   No pseudopotential on this center.
   49          1
                                   No pseudopotential on this center.
   50         35
                                   No pseudopotential on this center.
   51          6
                                   No pseudopotential on this center.
   52          6
                                   No pseudopotential on this center.
   53          1
                                   No pseudopotential on this center.
   54          1
                                   No pseudopotential on this center.
   55          6
                                   No pseudopotential on this center.
   56          1
                                   No pseudopotential on this center.
   57          1
                                   No pseudopotential on this center.
   58          1
                                   No pseudopotential on this center.
   59          1
                                   No pseudopotential on this center.
   60          1
                                   No pseudopotential on this center.
   61          6
                                   No pseudopotential on this center.
   62          6
                                   No pseudopotential on this center.
   63          1
                                   No pseudopotential on this center.
   64          1
                                   No pseudopotential on this center.
   65          6
                                   No pseudopotential on this center.
   66          1
                                   No pseudopotential on this center.
   67          1
                                   No pseudopotential on this center.
   68          1
                                   No pseudopotential on this center.
   69          1
                                   No pseudopotential on this center.
   70          1
                                   No pseudopotential on this center.
   71          6
                                   No pseudopotential on this center.
   72          6
                                   No pseudopotential on this center.
   73          1
                                   No pseudopotential on this center.
   74          1
                                   No pseudopotential on this center.
   75          6
                                   No pseudopotential on this center.
   76          1
                                   No pseudopotential on this center.
   77          1
                                   No pseudopotential on this center.
   78          1
                                   No pseudopotential on this center.
   79          1
                                   No pseudopotential on this center.
   80          1
                                   No pseudopotential on this center.
   81          6
                                   No pseudopotential on this center.
   82          6
                                   No pseudopotential on this center.
   83          1
                                   No pseudopotential on this center.
   84          1
                                   No pseudopotential on this center.
   85          6
                                   No pseudopotential on this center.
   86          1
                                   No pseudopotential on this center.
   87          1
                                   No pseudopotential on this center.
   88          1
                                   No pseudopotential on this center.
   89          1
                                   No pseudopotential on this center.
   90          1
                                   No pseudopotential on this center.
 ======================================================================================================
   897 basis functions,  1785 primitive gaussians,   944 cartesian basis functions
   211 alpha electrons      211 beta electrons
       nuclear repulsion energy      8598.3921044243 Hartrees.
 NAtoms=   90 NActive=   90 NUniq=   90 SFac= 1.00D+00 NAtFMM=   60 NAOKFM=T Big=T
 Integral buffers will be    131072 words long.
 Raffenetti 2 integral format.
 Two-electron integral symmetry is turned off.
 One-electron integrals computed using PRISM.
   1 Symmetry operations used in ECPInt.
 ECPInt:  NShTT=   54946 NPrTT=  301763 LenC2=   38723 LenP2D=  109536.
 LDataN:  DoStor=T MaxTD1= 5 Len=  102
 NBasis=   897 RedAO= T EigKep=  1.36D-03  NBF=   897
 NBsUse=   897 1.00D-06 EigRej= -1.00D+00 NBFU=   897
 ExpMin= 3.51D-02 ExpMax= 5.74D+05 ExpMxC= 5.74D+03 IAcc=3 IRadAn=         5 AccDes= 0.00D+00
 Harris functional with IExCor=20419 and IRadAn=       5 diagonalized for initial guess.
 HarFok:  IExCor=20419 AccDes= 0.00D+00 IRadAn=         5 IDoV= 1 UseB2=F ITyADJ=14
 ICtDFT=  3500011 ScaDFX=  1.000000  1.000000  1.000000  1.000000
 FoFCou: FMM=F IPFlag=           0 FMFlag=      100000 FMFlg1=        2001
         NFxFlg=           0 DoJE=T BraDBF=F KetDBF=T FulRan=T
         wScrn=  0.000000 ICntrl=       500 IOpCl=  0 I1Cent=   200000004 NGrid=           0
         NMat0=    1 NMatS0=      1 NMatT0=    0 NMatD0=    1 NMtDS0=    0 NMtDT0=    0
 Symmetry not used in FoFCou.
 Gradient too large for Newton-Raphson -- use scaled steepest descent instead.
 Gradient too large for Newton-Raphson -- use scaled steepest descent instead.
 Gradient too large for Newton-Raphson -- use scaled steepest descent instead.
 Gradient too large for Newton-Raphson -- use scaled steepest descent instead.
     Minimum is close to point  2 DX=  4.65D-02 DF= -1.19D-05 DXR=  7.19D-02 DFR=  5.20D-03 which will be used.
 Gradient too large for Newton-Raphson -- use scaled steepest descent instead.
 Gradient too large for Newton-Raphson -- use scaled steepest descent instead.
     Accept linear search using points  1 and  2.
 LinEq1:  Iter=  0 NonCon=     1 RMS=2.25D-05 Max=2.43D-03 NDo=     1
 AX will form     1 AO Fock derivatives at one time.
 LinEq1:  Iter=  1 NonCon=     1 RMS=7.97D-06 Max=4.24D-04 NDo=     1
 LinEq1:  Iter=  2 NonCon=     1 RMS=2.88D-06 Max=1.77D-04 NDo=     1
 LinEq1:  Iter=  3 NonCon=     1 RMS=1.57D-06 Max=1.44D-04 NDo=     1
 LinEq1:  Iter=  4 NonCon=     1 RMS=7.73D-07 Max=5.45D-05 NDo=     1
 LinEq1:  Iter=  5 NonCon=     1 RMS=3.89D-07 Max=2.74D-05 NDo=     1
 LinEq1:  Iter=  6 NonCon=     1 RMS=2.21D-07 Max=1.37D-05 NDo=     1
 LinEq1:  Iter=  7 NonCon=     1 RMS=9.33D-08 Max=6.35D-06 NDo=     1
 LinEq1:  Iter=  8 NonCon=     1 RMS=4.86D-08 Max=2.41D-06 NDo=     1
 LinEq1:  Iter=  9 NonCon=     1 RMS=2.10D-08 Max=1.72D-06 NDo=     1
 LinEq1:  Iter= 10 NonCon=     1 RMS=1.33D-08 Max=1.12D-06 NDo=     1
 LinEq1:  Iter= 11 NonCon=     0 RMS=5.65D-09 Max=3.15D-07 NDo=     1
 Linear equations converged to 5.380D-08 5.380D-07 after    11 iterations.
     Minimum is close to point  2 DX=  9.87D-06 DF= -9.09D-13 DXR=  9.87D-06 DFR=  1.00D-08 which will be used.
 LinEq1:  Iter=  0 NonCon=     1 RMS=3.12D-08 Max=2.65D-06 NDo=     1
 LinEq1:  Iter=  1 NonCon=     1 RMS=1.94D-08 Max=1.92D-06 NDo=     1
 LinEq1:  Iter=  2 NonCon=     1 RMS=1.04D-08 Max=6.22D-07 NDo=     1
 LinEq1:  Iter=  3 NonCon=     1 RMS=3.85D-09 Max=3.01D-07 NDo=     1
 LinEq1:  Iter=  4 NonCon=     1 RMS=2.40D-09 Max=2.14D-07 NDo=     1
 LinEq1:  Iter=  5 NonCon=     1 RMS=1.12D-09 Max=1.36D-07 NDo=     1
 LinEq1:  Iter=  6 NonCon=     1 RMS=6.13D-10 Max=6.56D-08 NDo=     1
 LinEq1:  Iter=  7 NonCon=     1 RMS=3.71D-10 Max=4.04D-08 NDo=     1
 LinEq1:  Iter=  8 NonCon=     1 RMS=1.85D-10 Max=1.24D-08 NDo=     1
 LinEq1:  Iter=  9 NonCon=     1 RMS=7.39D-11 Max=4.22D-09 NDo=     1
 LinEq1:  Iter= 10 NonCon=     1 RMS=3.54D-11 Max=1.95D-09 NDo=     1
 LinEq1:  Iter= 11 NonCon=     0 RMS=1.75D-11 Max=9.90D-10 NDo=     1
 Linear equations converged to 1.213D-10 1.213D-09 after    11 iterations.
 Restarting incremental Fock formation.
 SCF Done:  E(RCAM-B3LYP) =  -6957.56385051     a.u. after    9 cycles
            Convg  =    0.2684D-08                    43 Fock formations.
              S**2 =  0.0000                  -V/T =  1.9952
 DoSCS=F DFT=T ScalE2(SS,OS)=  1.000000  1.000000
 Range of M.O.s used for correlation:     1   897
 NBasis=   897 NAE=   211 NBE=   211 NFC=     0 NFV=     0
 NROrb=    897 NOA=   211 NOB=   211 NVA=   686 NVB=   686
   1 Symmetry operations used in ECPInt.
 ECPInt:  NShTT=   54946 NPrTT=  301763 LenC2=   38723 LenP2D=  109536.
 LDataN:  DoStor=T MaxTD1= 6 Len=  172
 Number of processors reduced to   8 by ecpmxn.
 Symmetrizing basis deriv contribution to polar:
 IMax=3 JMax=2 DiffMx= 0.00D+00
 G2DrvN: will do    91 centers at a time, making    1 passes.
 Calling FoFCou, ICntrl=  3107 FMM=T I1Cent=   0 AccDes= 0.00D+00.
 End of G2Drv F.D. properties file   721 does not exist.
 End of G2Drv F.D. properties file   722 does not exist.
 End of G2Drv F.D. properties file   788 does not exist.
          IDoAtm=00110110111111111111111111111111111111111111111111
          IDoAtm=1111111111111111111111111111111111111111
          Differentiating once with respect to electric field.
                with respect to dipole field.
          Differentiating once with respect to nuclear coordinates.
 CalDSu exits because no D1Ps are significant.
          There are   261 degrees of freedom in the 1st order CPHF.  IDoFFX=6 NUNeed=     3.
    261 vectors produced by pass  0 Test12= 1.45D-13 1.00D-09 XBig12= 2.04D+02 2.55D+00.
 AX will form    96 AO Fock derivatives at one time.
    261 vectors produced by pass  1 Test12= 1.45D-13 1.00D-09 XBig12= 2.46D+01 5.98D-01.
    261 vectors produced by pass  2 Test12= 1.45D-13 1.00D-09 XBig12= 6.05D-01 9.17D-02.
    261 vectors produced by pass  3 Test12= 1.45D-13 1.00D-09 XBig12= 1.26D-02 1.90D-02.
    261 vectors produced by pass  4 Test12= 1.45D-13 1.00D-09 XBig12= 1.16D-04 2.04D-03.
    261 vectors produced by pass  5 Test12= 1.45D-13 1.00D-09 XBig12= 6.09D-07 1.06D-04.
    134 vectors produced by pass  6 Test12= 1.45D-13 1.00D-09 XBig12= 2.73D-09 7.00D-06.
     40 vectors produced by pass  7 Test12= 1.45D-13 1.00D-09 XBig12= 1.17D-11 4.09D-07.
      3 vectors produced by pass  8 Test12= 1.45D-13 1.00D-09 XBig12= 4.80D-14 2.00D-08.
      2 vectors produced by pass  9 Test12= 1.45D-13 1.00D-09 XBig12= 1.82D-16 1.22D-09.
 InvSVY:  IOpt=1 It=  1 EMax= 8.94D-15
 Solved reduced A of dimension  1745 with   261 vectors.
 Isotropic polarizability for W=    0.000000      430.02 Bohr**3.
 End of Minotr F.D. properties file   721 does not exist.
 End of Minotr F.D. properties file   722 does not exist.
 End of Minotr F.D. properties file   788 does not exist.

 **********************************************************************

            Population analysis using the SCF Density.

 **********************************************************************

 Alpha  occ. eigenvalues -- -482.58157-101.66281-101.62535-101.61086-101.59510
 Alpha  occ. eigenvalues -- -101.59352-101.57130 -61.66279 -56.23068 -56.23051
 Alpha  occ. eigenvalues --  -56.23031 -19.25857 -14.52834 -14.44658 -14.44601
 Alpha  occ. eigenvalues --  -14.41568 -14.40035 -14.38124 -14.35991 -10.36129
 Alpha  occ. eigenvalues --  -10.35929 -10.34128 -10.32168 -10.32113 -10.31863
 Alpha  occ. eigenvalues --  -10.31249 -10.31024 -10.30839 -10.30356 -10.29755
 Alpha  occ. eigenvalues --  -10.29343 -10.29262 -10.29172 -10.28149 -10.27687
 Alpha  occ. eigenvalues --  -10.27318 -10.25814 -10.25572 -10.25396 -10.24710
 Alpha  occ. eigenvalues --  -10.24645 -10.24411 -10.24151 -10.23836 -10.23237
 Alpha  occ. eigenvalues --  -10.23207 -10.21897  -9.59494  -9.55719  -9.54237
 Alpha  occ. eigenvalues --   -9.52680  -9.52577  -9.50391  -8.44301  -7.35889
 Alpha  occ. eigenvalues --   -7.35002  -7.34879  -7.32201  -7.31127  -7.31120
 Alpha  occ. eigenvalues --   -7.30673  -7.29677  -7.29673  -7.29111  -7.29011
 Alpha  occ. eigenvalues --   -7.28128  -7.28109  -7.28019  -7.27998  -7.26827
 Alpha  occ. eigenvalues --   -7.25826  -7.25809  -6.45258  -6.45231  -6.45213
 Alpha  occ. eigenvalues --   -2.57554  -2.57550  -2.57534  -2.57512  -2.57511
 Alpha  occ. eigenvalues --   -2.16397  -1.16045  -1.13471  -1.09516  -1.08686
 Alpha  occ. eigenvalues --   -1.06935  -1.01034  -0.98496  -0.95922  -0.94497
 Alpha  occ. eigenvalues --   -0.94203  -0.93672  -0.92560  -0.91129  -0.89401
 Alpha  occ. eigenvalues --   -0.89103  -0.88654  -0.87550  -0.87313  -0.83632
 Alpha  occ. eigenvalues --   -0.83326  -0.82304  -0.81851  -0.81478  -0.78194
 Alpha  occ. eigenvalues --   -0.77701  -0.76082  -0.75728  -0.74615  -0.72589
 Alpha  occ. eigenvalues --   -0.72314  -0.70418  -0.69022  -0.68988  -0.68496
 Alpha  occ. eigenvalues --   -0.68394  -0.68155  -0.67964  -0.67374  -0.67025
 Alpha  occ. eigenvalues --   -0.66785  -0.66464  -0.65694  -0.65163  -0.64774
 Alpha  occ. eigenvalues --   -0.64553  -0.63208  -0.62264  -0.61536  -0.60666
 Alpha  occ. eigenvalues --   -0.59602  -0.59389  -0.59112  -0.57182  -0.56830
 Alpha  occ. eigenvalues --   -0.56545  -0.55390  -0.54978  -0.54303  -0.54148
 Alpha  occ. eigenvalues --   -0.54018  -0.53583  -0.53146  -0.51733  -0.50991
 Alpha  occ. eigenvalues --   -0.50635  -0.50491  -0.49693  -0.49510  -0.49282
 Alpha  occ. eigenvalues --   -0.49133  -0.48635  -0.48410  -0.48082  -0.47906
 Alpha  occ. eigenvalues --   -0.47538  -0.47406  -0.47348  -0.47088  -0.46887
 Alpha  occ. eigenvalues --   -0.46685  -0.46038  -0.45324  -0.45254  -0.44843
 Alpha  occ. eigenvalues --   -0.44599  -0.44352  -0.44136  -0.43846  -0.43730
 Alpha  occ. eigenvalues --   -0.43282  -0.43071  -0.43008  -0.42146  -0.41979
 Alpha  occ. eigenvalues --   -0.41738  -0.41571  -0.41320  -0.41110  -0.40830
 Alpha  occ. eigenvalues --   -0.40578  -0.40220  -0.39868  -0.39722  -0.39634
 Alpha  occ. eigenvalues --   -0.39364  -0.39214  -0.38989  -0.38934  -0.38706
 Alpha  occ. eigenvalues --   -0.38434  -0.38228  -0.38131  -0.38009  -0.37844
 Alpha  occ. eigenvalues --   -0.37560  -0.37335  -0.37164  -0.36393  -0.36016
 Alpha  occ. eigenvalues --   -0.34435  -0.33135  -0.31613  -0.30935  -0.30089
 Alpha  occ. eigenvalues --   -0.29712  -0.25959  -0.24146  -0.22962  -0.22811
 Alpha  occ. eigenvalues --   -0.22735
 Alpha virt. eigenvalues --   -0.06083  -0.00301   0.00458   0.04482   0.04948
 Alpha virt. eigenvalues --    0.05350   0.07095   0.08094   0.08739   0.08968
 Alpha virt. eigenvalues --    0.09335   0.09912   0.10261   0.10597   0.11036
 Alpha virt. eigenvalues --    0.11421   0.11558   0.11973   0.12463   0.12537
 Alpha virt. eigenvalues --    0.12842   0.12977   0.13127   0.13448   0.13592
 Alpha virt. eigenvalues --    0.14054   0.14471   0.14729   0.15168   0.15339
 Alpha virt. eigenvalues --    0.15450   0.16208   0.16502   0.16790   0.17258
 Alpha virt. eigenvalues --    0.17859   0.18098   0.18312   0.18619   0.19128
 Alpha virt. eigenvalues --    0.19308   0.19601   0.20098   0.20391   0.20713
 Alpha virt. eigenvalues --    0.20746   0.21135   0.21358   0.21775   0.22016
 Alpha virt. eigenvalues --    0.22278   0.22385   0.22608   0.22665   0.23028
 Alpha virt. eigenvalues --    0.23212   0.23850   0.23924   0.24257   0.24541
 Alpha virt. eigenvalues --    0.24769   0.25097   0.25431   0.25689   0.25788
 Alpha virt. eigenvalues --    0.25899   0.26410   0.26517   0.26785   0.26817
 Alpha virt. eigenvalues --    0.27320   0.27854   0.28118   0.28321   0.28880
 Alpha virt. eigenvalues --    0.29066   0.29706   0.29762   0.30074   0.30384
 Alpha virt. eigenvalues --    0.30684   0.31550   0.31805   0.31836   0.32230
 Alpha virt. eigenvalues --    0.32543   0.32612   0.32780   0.33078   0.33582
 Alpha virt. eigenvalues --    0.33660   0.34402   0.34973   0.35332   0.35756
 Alpha virt. eigenvalues --    0.36074   0.36449   0.37177   0.37454   0.38613
 Alpha virt. eigenvalues --    0.39379   0.40087   0.40729   0.41013   0.41156
 Alpha virt. eigenvalues --    0.41844   0.43105   0.43228   0.43671   0.44807
 Alpha virt. eigenvalues --    0.46051   0.46621   0.46814   0.47166   0.48632
 Alpha virt. eigenvalues --    0.48691   0.49191   0.49483   0.49961   0.50634
 Alpha virt. eigenvalues --    0.51498   0.51685   0.52154   0.52238   0.52821
 Alpha virt. eigenvalues --    0.52976   0.53284   0.53579   0.54129   0.54524
 Alpha virt. eigenvalues --    0.54871   0.55463   0.55813   0.56039   0.56470
 Alpha virt. eigenvalues --    0.56889   0.57091   0.57410   0.57679   0.57747
 Alpha virt. eigenvalues --    0.58458   0.58850   0.59855   0.60125   0.60371
 Alpha virt. eigenvalues --    0.60767   0.61065   0.61176   0.61436   0.61907
 Alpha virt. eigenvalues --    0.62226   0.62525   0.62795   0.63106   0.63892
 Alpha virt. eigenvalues --    0.64000   0.64132   0.64699   0.64912   0.65446
 Alpha virt. eigenvalues --    0.65551   0.65694   0.66332   0.66665   0.66883
 Alpha virt. eigenvalues --    0.67170   0.67508   0.67725   0.67886   0.68161
 Alpha virt. eigenvalues --    0.68448   0.68942   0.69149   0.69690   0.69773
 Alpha virt. eigenvalues --    0.69895   0.70527   0.70840   0.71184   0.71653
 Alpha virt. eigenvalues --    0.71744   0.72195   0.72595   0.72960   0.73130
 Alpha virt. eigenvalues --    0.73453   0.74048   0.74261   0.74474   0.75106
 Alpha virt. eigenvalues --    0.75328   0.75430   0.76268   0.76403   0.76896
 Alpha virt. eigenvalues --    0.77316   0.77375   0.78490   0.78773   0.79386
 Alpha virt. eigenvalues --    0.79630   0.80178   0.80553   0.81295   0.81387
 Alpha virt. eigenvalues --    0.82160   0.82283   0.82756   0.82949   0.83688
 Alpha virt. eigenvalues --    0.84255   0.85238   0.85490   0.85948   0.86329
 Alpha virt. eigenvalues --    0.86604   0.87345   0.87453   0.87686   0.88126
 Alpha virt. eigenvalues --    0.88425   0.88600   0.89010   0.89127   0.89512
 Alpha virt. eigenvalues --    0.89788   0.90094   0.90367   0.90436   0.91207
 Alpha virt. eigenvalues --    0.91334   0.91574   0.91631   0.91862   0.92166
 Alpha virt. eigenvalues --    0.92468   0.92505   0.92882   0.93036   0.93186
 Alpha virt. eigenvalues --    0.93585   0.93839   0.93911   0.94121   0.94548
 Alpha virt. eigenvalues --    0.94731   0.94879   0.95144   0.95190   0.95560
 Alpha virt. eigenvalues --    0.95678   0.95895   0.96166   0.96306   0.96470
 Alpha virt. eigenvalues --    0.96600   0.97029   0.97466   0.97548   0.97790
 Alpha virt. eigenvalues --    0.98368   0.98608   0.98747   0.99088   0.99354
 Alpha virt. eigenvalues --    0.99646   1.00181   1.00464   1.00600   1.00785
 Alpha virt. eigenvalues --    1.01014   1.01059   1.01350   1.01680   1.02242
 Alpha virt. eigenvalues --    1.02792   1.02996   1.03071   1.03267   1.03548
 Alpha virt. eigenvalues --    1.04052   1.04672   1.04845   1.05207   1.05322
 Alpha virt. eigenvalues --    1.05820   1.06520   1.06943   1.07046   1.07478
 Alpha virt. eigenvalues --    1.07960   1.08250   1.08671   1.08954   1.09322
 Alpha virt. eigenvalues --    1.09977   1.10474   1.10602   1.11259   1.11395
 Alpha virt. eigenvalues --    1.12051   1.12432   1.12483   1.13216   1.13918
 Alpha virt. eigenvalues --    1.14214   1.14463   1.15200   1.15966   1.16624
 Alpha virt. eigenvalues --    1.16744   1.17515   1.18120   1.18188   1.19342
 Alpha virt. eigenvalues --    1.19565   1.20234   1.20413   1.20884   1.22399
 Alpha virt. eigenvalues --    1.22923   1.24007   1.24658   1.25020   1.25656
 Alpha virt. eigenvalues --    1.25933   1.28767   1.29333   1.29787   1.31007
 Alpha virt. eigenvalues --    1.31715   1.32877   1.33895   1.34542   1.35257
 Alpha virt. eigenvalues --    1.35760   1.36108   1.36864   1.38060   1.38495
 Alpha virt. eigenvalues --    1.38963   1.40073   1.40306   1.40413   1.41227
 Alpha virt. eigenvalues --    1.42412   1.42879   1.43051   1.43921   1.44734
 Alpha virt. eigenvalues --    1.45210   1.45396   1.46467   1.47162   1.47409
 Alpha virt. eigenvalues --    1.47698   1.48510   1.49205   1.49737   1.50635
 Alpha virt. eigenvalues --    1.50951   1.51653   1.52374   1.53214   1.53882
 Alpha virt. eigenvalues --    1.54349   1.55351   1.55641   1.57103   1.58898
 Alpha virt. eigenvalues --    1.59625   1.60618   1.60770   1.62276   1.62424
 Alpha virt. eigenvalues --    1.62773   1.63305   1.63541   1.64184   1.64990
 Alpha virt. eigenvalues --    1.65366   1.66357   1.66982   1.67232   1.67948
 Alpha virt. eigenvalues --    1.68206   1.68935   1.69133   1.70175   1.70423
 Alpha virt. eigenvalues --    1.71226   1.71881   1.72069   1.72646   1.72946
 Alpha virt. eigenvalues --    1.73745   1.74629   1.75117   1.75194   1.75568
 Alpha virt. eigenvalues --    1.76878   1.77023   1.77628   1.78329   1.78793
 Alpha virt. eigenvalues --    1.79033   1.80023   1.80643   1.81551   1.82820
 Alpha virt. eigenvalues --    1.84083   1.86755   1.88836   1.89533   1.89880
 Alpha virt. eigenvalues --    1.90541   1.91198   1.91799   1.92162   1.92509
 Alpha virt. eigenvalues --    1.93492   1.93997   1.94495   1.94730   1.95017
 Alpha virt. eigenvalues --    1.95800   1.95984   1.96618   1.97398   1.97920
 Alpha virt. eigenvalues --    1.98154   1.98617   1.99642   1.99807   2.00295
 Alpha virt. eigenvalues --    2.01184   2.01635   2.01936   2.03202   2.03566
 Alpha virt. eigenvalues --    2.04148   2.04401   2.04463   2.05139   2.05309
 Alpha virt. eigenvalues --    2.07562   2.08144   2.09247   2.10255   2.10934
 Alpha virt. eigenvalues --    2.11227   2.11309   2.12122   2.12440   2.12802
 Alpha virt. eigenvalues --    2.13331   2.13598   2.13707   2.14022   2.14273
 Alpha virt. eigenvalues --    2.14927   2.15150   2.15240   2.15439   2.15849
 Alpha virt. eigenvalues --    2.16212   2.16486   2.16716   2.17065   2.17688
 Alpha virt. eigenvalues --    2.17900   2.18124   2.18742   2.19204   2.19733
 Alpha virt. eigenvalues --    2.20167   2.20267   2.20424   2.21286   2.21415
 Alpha virt. eigenvalues --    2.21865   2.23491   2.23666   2.24681   2.25376
 Alpha virt. eigenvalues --    2.25870   2.26004   2.26718   2.27425   2.27895
 Alpha virt. eigenvalues --    2.28394   2.28557   2.28871   2.29567   2.29969
 Alpha virt. eigenvalues --    2.30388   2.31418   2.31917   2.32671   2.32983
 Alpha virt. eigenvalues --    2.33002   2.33362   2.33440   2.33692   2.34922
 Alpha virt. eigenvalues --    2.34958   2.35163   2.35458   2.36042   2.36587
 Alpha virt. eigenvalues --    2.36994   2.37801   2.38095   2.38320   2.38682
 Alpha virt. eigenvalues --    2.38911   2.39984   2.40594   2.41003   2.41415
 Alpha virt. eigenvalues --    2.41863   2.42138   2.42361   2.42670   2.43867
 Alpha virt. eigenvalues --    2.44444   2.45092   2.46060   2.46407   2.47003
 Alpha virt. eigenvalues --    2.48051   2.48642   2.49543   2.49644   2.50868
 Alpha virt. eigenvalues --    2.51781   2.52176   2.53103   2.54387   2.55288
 Alpha virt. eigenvalues --    2.55847   2.56765   2.57222   2.58004   2.59272
 Alpha virt. eigenvalues --    2.59689   2.61960   2.62839   2.63432   2.63613
 Alpha virt. eigenvalues --    2.64153   2.65226   2.65729   2.65976   2.66469
 Alpha virt. eigenvalues --    2.67441   2.67800   2.68372   2.68817   2.69229
 Alpha virt. eigenvalues --    2.69755   2.70578   2.71020   2.71467   2.71753
 Alpha virt. eigenvalues --    2.72093   2.72578   2.74004   2.74286   2.74417
 Alpha virt. eigenvalues --    2.75154   2.75921   2.76454   2.77204   2.77796
 Alpha virt. eigenvalues --    2.78154   2.79484   2.79610   2.80184   2.80664
 Alpha virt. eigenvalues --    2.80896   2.82447   2.82515   2.83000   2.84132
 Alpha virt. eigenvalues --    2.84396   2.84459   2.84777   2.85307   2.85804
 Alpha virt. eigenvalues --    2.85981   2.86805   2.87534   2.88255   2.88380
 Alpha virt. eigenvalues --    2.88588   2.89950   2.90066   2.90714   2.91085
 Alpha virt. eigenvalues --    2.91886   2.92081   2.92249   2.92713   2.93455
 Alpha virt. eigenvalues --    2.93971   2.94184   2.95256   2.95629   2.96061
 Alpha virt. eigenvalues --    2.96655   2.97059   2.97702   2.97739   2.98049
 Alpha virt. eigenvalues --    2.98194   2.98860   2.99074   2.99156   2.99548
 Alpha virt. eigenvalues --    3.00096   3.00305   3.00993   3.01398   3.01836
 Alpha virt. eigenvalues --    3.03046   3.03511   3.03898   3.04370   3.05119
 Alpha virt. eigenvalues --    3.05786   3.06473   3.07809   3.08342   3.10199
 Alpha virt. eigenvalues --    3.12328   3.18543   3.23465   3.25174   3.25753
 Alpha virt. eigenvalues --    3.27657   3.28719   3.30074   3.30451   3.32405
 Alpha virt. eigenvalues --    3.35503   3.36862   3.37509   3.38017   3.39166
 Alpha virt. eigenvalues --    3.39534   3.41103   3.41308   3.41736   3.42610
 Alpha virt. eigenvalues --    3.44143   3.44307   3.45757   3.49006   3.49938
 Alpha virt. eigenvalues --    3.50801   3.51082   3.52749   3.53342   3.54333
 Alpha virt. eigenvalues --    3.54582   3.55358   3.56828   3.57534   3.58154
 Alpha virt. eigenvalues --    3.58471   3.59450   3.60096   3.61482   3.62707
 Alpha virt. eigenvalues --    3.63200   3.63614   3.64076   3.64187   3.66679
 Alpha virt. eigenvalues --    3.67308   3.67795   3.70453   3.70796   8.71551
 Alpha virt. eigenvalues --    9.38606
          Condensed to atoms (all electrons):
 Mulliken charges:
               1
     1  Li   0.613635
     2  N   -0.497824
     3  C    0.059567
     4  Cl   0.057617
     5  N   -0.391846
     6  C    0.000955
     7  Cl  -0.022039
     8  N   -0.366880
     9  C    0.009804
    10  Cl  -0.024079
    11  Zn   1.053441
    12  N   -0.541809
    13  C    0.057562
    14  Cl   0.063990
    15  N   -0.590655
    16  C    0.036594
    17  Cl  -0.017570
    18  N   -0.574238
    19  C    0.018873
    20  Cl  -0.009563
    21  C    0.235185
    22  H    0.153657
    23  C    0.170113
    24  H    0.102334
    25  C    0.171434
    26  H    0.123191
    27  C    0.161596
    28  C    0.016040
    29  O   -0.568496
    30  C   -0.333005
    31  H    0.153339
    32  H    0.153538
    33  H    0.116886
    34  H    0.117656
    35  H    0.160873
    36  H    0.133057
    37  N   -0.409508
    38  C   -0.089325
    39  H    0.182131
    40  H    0.144352
    41  C   -0.054594
    42  H    0.141805
    43  H    0.150130
    44  C   -0.076341
    45  H    0.123513
    46  H    0.158659
    47  C   -0.071201
    48  H    0.109602
    49  H    0.184943
    50  Br  -0.764128
    51  C   -0.192462
    52  C   -0.187309
    53  H    0.149837
    54  H    0.080081
    55  C   -0.314892
    56  H    0.148413
    57  H    0.076517
    58  H    0.103954
    59  H    0.088902
    60  H    0.119541
    61  C   -0.213684
    62  C   -0.185700
    63  H    0.117637
    64  H    0.160338
    65  C   -0.325121
    66  H    0.106077
    67  H    0.089483
    68  H    0.098521
    69  H    0.117998
    70  H    0.112522
    71  C   -0.195883
    72  C   -0.203575
    73  H    0.097135
    74  H    0.106280
    75  C   -0.323252
    76  H    0.103706
    77  H    0.131823
    78  H    0.147018
    79  H    0.089609
    80  H    0.094831
    81  C   -0.203129
    82  C   -0.184345
    83  H    0.118071
    84  H    0.115048
    85  C   -0.314834
    86  H    0.107819
    87  H    0.103014
    88  H    0.112111
    89  H    0.106695
    90  H    0.108230
 Sum of Mulliken charges =   0.00000
 Mulliken charges with hydrogens summed into heavy atoms:
               1
     1  Li   0.613635
     2  N   -0.497824
     3  C    0.059567
     4  Cl   0.057617
     5  N   -0.391846
     6  C    0.000955
     7  Cl  -0.022039
     8  N   -0.366880
     9  C    0.009804
    10  Cl  -0.024079
    11  Zn   1.053441
    12  N   -0.541809
    13  C    0.057562
    14  Cl   0.063990
    15  N   -0.590655
    16  C    0.036594
    17  Cl  -0.017570
    18  N   -0.574238
    19  C    0.018873
    20  Cl  -0.009563
    21  C    0.388842
    23  C    0.272447
    25  C    0.294625
    27  C    0.294653
    28  C    0.322917
    29  O   -0.568496
    30  C    0.062409
    37  N   -0.409508
    38  C    0.237158
    41  C    0.237341
    44  C    0.205831
    47  C    0.223344
    50  Br  -0.764128
    51  C    0.037456
    52  C    0.037621
    55  C   -0.002494
    61  C    0.064291
    62  C    0.009860
    65  C    0.003920
    71  C    0.007533
    72  C    0.031954
    75  C    0.008206
    81  C    0.029991
    82  C    0.026488
    85  C    0.012202
 Electronic spatial extent (au):  <R**2>=          39696.1514
 Charge=              0.0000 electrons
 Dipole moment (field-independent basis, Debye):
    X=              4.2278    Y=             -8.9949    Z=            -11.6275  Tot=             15.2965
 Quadrupole moment (field-independent basis, Debye-Ang):
   XX=           -363.2284   YY=           -183.6062   ZZ=           -331.3822
   XY=             44.8625   XZ=              9.5937   YZ=             47.4196
 Traceless Quadrupole moment (field-independent basis, Debye-Ang):
   XX=            -70.4895   YY=            109.1328   ZZ=            -38.6433
   XY=             44.8625   XZ=              9.5937   YZ=             47.4196
 Octapole moment (field-independent basis, Debye-Ang**2):
  XXX=            129.6470  YYY=           -796.3531  ZZZ=           -199.4114  XYY=           -110.2728
  XXY=            -92.9318  XXZ=             -2.5658  XZZ=           -171.3364  YZZ=           -446.1563
  YYZ=           -505.8416  XYZ=           -149.6391
 Hexadecapole moment (field-independent basis, Debye-Ang**3):
 XXXX=         -17028.6156 YYYY=         -20196.0975 ZZZZ=          -8547.6753 XXXY=          -3991.9920
 XXXZ=           -518.5519 YYYX=          -2329.1271 YYYZ=           1410.8329 ZZZX=           -466.2311
 ZZZY=           -981.7625 XXYY=          -6609.1467 XXZZ=          -4183.1963 YYZZ=          -3888.2931
 XXYZ=           -538.2775 YYXZ=            593.1046 ZZXY=           -986.8611
 N-N= 8.598392104424D+03 E-N=-3.377349842708D+04  KE= 6.991367082694D+03
  Exact polarizability: 422.245  11.988 465.725 -17.191  13.164 402.102
 Approx polarizability: 494.862  -8.583 503.857 -27.914   2.863 511.572
   1 Symmetry operations used in ECPInt.
 ECPInt:  NShTT=   54946 NPrTT=  301763 LenC2=   38723 LenP2D=  109536.
 LDataN:  DoStor=T MaxTD1= 7 Len=  274
 Calling FoFJK, ICntrl=    100127 FMM=F ISym2X=0 I1Cent= 0 IOpClX= 0 NMat=1 NMatS=1 NMatT=0.
 -------------------------------------------------------------------
 Center     Atomic                   Forces (Hartrees/Bohr)
 Number     Number              X              Y              Z
 -------------------------------------------------------------------
      1        3          -0.000000000   -0.000000000   -0.000000000
      2        7          -0.000000000   -0.000000000   -0.000000000
      3        6           0.000000227    0.000005636    0.000002326
      4       17          -0.000025819    0.000031210    0.000020979
      5        7          -0.000000000   -0.000000000   -0.000000000
      6        6          -0.000000257    0.000000345    0.000008810
      7       17           0.000007248   -0.000014929    0.000041074
      8        7          -0.000000000   -0.000000000   -0.000000000
      9        6           0.000001161    0.000002640    0.000000126
     10       17           0.000028424    0.000048083   -0.000003710
     11       30           0.000016160    0.000037254    0.000057589
     12        7           0.000015292    0.000002042    0.000000087
     13        6           0.000008321    0.000005793    0.000001282
     14       17           0.000037214    0.000036694    0.000009829
     15        7          -0.000007002   -0.000012155    0.000002781
     16        6          -0.000003040   -0.000004905    0.000000082
     17       17          -0.000015655   -0.000022216    0.000004284
     18        7          -0.000001398    0.000011903    0.000015180
     19        6          -0.000001194    0.000005934    0.000015694
     20       17          -0.000017885    0.000016904    0.000071152
     21        6           0.000008125   -0.000001852   -0.000001061
     22        1           0.000000660   -0.000000676   -0.000000008
     23        6          -0.000004169   -0.000006555    0.000001541
     24        1          -0.000000456   -0.000000738   -0.000000040
     25        6          -0.000000922    0.000007024    0.000004842
     26        1           0.000000658    0.000000313    0.000000125
     27        6           0.000021157    0.000021197    0.000012746
     28        6           0.000031166    0.000006101    0.000056915
     29        8           0.000017557    0.000060609    0.000025606
     30        6           0.000042114   -0.000017875   -0.000054123
     31        1           0.000006113   -0.000007693    0.000013210
     32        1           0.000006686   -0.000002672   -0.000006125
     33        1          -0.000006634    0.000010401   -0.000000969
     34        1           0.000005873   -0.000001439   -0.000008950
     35        1           0.000001775   -0.000008631   -0.000008482
     36        1          -0.000001941    0.000000858    0.000009119
     37        7           0.000029415    0.000054093    0.000028854
     38        6           0.000028996    0.000043123    0.000042275
     39        1           0.000003444    0.000004084    0.000002780
     40        1           0.000001687    0.000004313    0.000004412
     41        6           0.000012598    0.000038527    0.000019606
     42        1           0.000001960    0.000003526    0.000001996
     43        1           0.000000176    0.000002985    0.000002930
     44        6           0.000021688    0.000040879    0.000021854
     45        1           0.000001476    0.000002670    0.000001925
     46        1           0.000001877    0.000003716    0.000002434
     47        6           0.000041190    0.000058752    0.000016261
     48        1          -0.000000353    0.000005043    0.000000203
     49        1           0.000005136    0.000007845   -0.000000620
     50       35           0.000606855    0.000575906    0.000248352
     51        6           0.000038113    0.000042852    0.000031933
     52        6           0.000056623    0.000060031    0.000020316
     53        1           0.000007756    0.000003785    0.000003342
     54        1           0.000001680    0.000000879    0.000004612
     55        6           0.000039863    0.000020360    0.000044015
     56        1           0.000006607    0.000011421   -0.000002857
     57        1          -0.000003451    0.000005094    0.000001761
     58        1           0.000003427    0.000003307    0.000001658
     59        1           0.000001912   -0.000006712    0.000009118
     60        1           0.000014062    0.000002332    0.000003038
     61        6           0.000007916    0.000039151    0.000022854
     62        6           0.000003408    0.000021617    0.000037772
     63        1           0.000000828    0.000004028    0.000001755
     64        1           0.000000555    0.000003944    0.000001735
     65        6          -0.000018870    0.000031924    0.000066073
     66        1           0.000000088   -0.000000043    0.000005074
     67        1           0.000000514    0.000001369    0.000002679
     68        1          -0.000003319    0.000001861    0.000006756
     69        1          -0.000001286    0.000004812    0.000002816
     70        1          -0.000002170    0.000002879    0.000006254
     71        6           0.000024179    0.000035976    0.000063029
     72        6           0.000039848    0.000023584    0.000073211
     73        1           0.000000967    0.000002860    0.000006682
     74        1           0.000002366    0.000002606    0.000005537
     75        6           0.000031456    0.000005837    0.000092342
     76        1           0.000003498    0.000002275    0.000005909
     77        1           0.000004567    0.000002158    0.000005084
     78        1           0.000004118    0.000000062    0.000006995
     79        1           0.000002223   -0.000000963    0.000008367
     80        1           0.000001751    0.000000871    0.000009305
     81        6           0.000009584    0.000034140   -0.000003793
     82        6           0.000001403    0.000023842   -0.000011346
     83        1           0.000000455    0.000001963   -0.000000554
     84        1           0.000001269    0.000003056   -0.000002201
     85        6          -0.000001366    0.000019521   -0.000029586
     86        1          -0.000000335    0.000001355   -0.000000126
     87        1           0.000000675    0.000002159   -0.000001102
     88        1          -0.000000654    0.000001150   -0.000002977
     89        1           0.000000233    0.000002137   -0.000003548
     90        1          -0.000000376    0.000001290   -0.000002490
 -------------------------------------------------------------------
 Cartesian Forces:  Max     0.000606855 RMS     0.000056851

 GradGradGradGradGradGradGradGradGradGradGradGradGradGradGradGradGradGrad
 Berny optimization.
 Search for a local minimum.
 Step number   1 out of a maximum of  280
 All quantities printed in internal units (Hartrees-Bohrs-Radians)
 Second derivative matrix not updated -- analytic derivatives used.
 ITU=  0
     Eigenvalues ---    0.00000   0.00002   0.00003   0.00004   0.00008
     Eigenvalues ---    0.00009   0.00013   0.00014   0.00017   0.00023
     Eigenvalues ---    0.00026   0.00030   0.00035   0.00041   0.00046
     Eigenvalues ---    0.00052   0.00058   0.00064   0.00081   0.00102
     Eigenvalues ---    0.00115   0.00131   0.00135   0.00168   0.00170
     Eigenvalues ---    0.00206   0.00227   0.00252   0.00264   0.00281
     Eigenvalues ---    0.00291   0.00297   0.00315   0.00346   0.00358
     Eigenvalues ---    0.00377   0.00404   0.00406   0.00430   0.00481
     Eigenvalues ---    0.00501   0.00575   0.00752   0.00764   0.00810
     Eigenvalues ---    0.00886   0.00926   0.01019   0.01043   0.01279
     Eigenvalues ---    0.01340   0.01368   0.01523   0.01693   0.01735
     Eigenvalues ---    0.01855   0.01942   0.01997   0.02166   0.02279
     Eigenvalues ---    0.02493   0.02596   0.02766   0.02772   0.02810
     Eigenvalues ---    0.02861   0.02861   0.02864   0.02894   0.02902
     Eigenvalues ---    0.02929   0.03286   0.03501   0.03625   0.03708
     Eigenvalues ---    0.03878   0.03937   0.03961   0.04014   0.04086
     Eigenvalues ---    0.04311   0.04409   0.04450   0.04482   0.04633
     Eigenvalues ---    0.04927   0.05239   0.05247   0.05254   0.05363
     Eigenvalues ---    0.05865   0.05938   0.06342   0.06471   0.06534
     Eigenvalues ---    0.06546   0.06607   0.06666   0.06733   0.06787
     Eigenvalues ---    0.06943   0.06976   0.07047   0.07166   0.07226
     Eigenvalues ---    0.07239   0.07473   0.07548   0.07550   0.07632
     Eigenvalues ---    0.07693   0.08141   0.08165   0.08230   0.08263
     Eigenvalues ---    0.08417   0.08566   0.08712   0.08846   0.08911
     Eigenvalues ---    0.09324   0.09612   0.10387   0.10823   0.10834
     Eigenvalues ---    0.10886   0.10961   0.11179   0.11452   0.11566
     Eigenvalues ---    0.11616   0.11630   0.11678   0.12795   0.13074
     Eigenvalues ---    0.13116   0.13359   0.13563   0.13615   0.13833
     Eigenvalues ---    0.13920   0.14086   0.14214   0.14483   0.14503
     Eigenvalues ---    0.15510   0.15716   0.15971   0.16077   0.16313
     Eigenvalues ---    0.16357   0.16636   0.16684   0.16731   0.16816
     Eigenvalues ---    0.16911   0.17109   0.19224   0.19618   0.19753
     Eigenvalues ---    0.19827   0.20197   0.20741   0.20856   0.20929
     Eigenvalues ---    0.21106   0.22004   0.22157   0.22349   0.23482
     Eigenvalues ---    0.23508   0.23786   0.23891   0.24568   0.26215
     Eigenvalues ---    0.26629   0.27582   0.27657   0.27992   0.28398
     Eigenvalues ---    0.28773   0.29300   0.35115   0.35676   0.36886
     Eigenvalues ---    0.40201   0.40735   0.41730   0.45851   0.47455
     Eigenvalues ---    0.48401   0.48756   0.48828   0.51300   0.52363
     Eigenvalues ---    0.53865   0.54110   0.57628   0.58133   0.58749
     Eigenvalues ---    0.59638   0.64984   0.65541   0.66180   0.66729
     Eigenvalues ---    0.67021   0.67379   0.67455   0.68984   0.73144
     Eigenvalues ---    0.73632   0.74488   0.74640   0.78656   0.78875
     Eigenvalues ---    0.79355   0.79437   0.79677   0.79839   0.79964
     Eigenvalues ---    0.80275   0.83476   0.83874   0.84557   0.85176
     Eigenvalues ---    0.85236   0.85302   0.85361   0.85566   0.85595
     Eigenvalues ---    0.86035   0.86374   0.86704   0.87114   0.89497
     Eigenvalues ---    0.89872   0.90749   0.91371   0.91682   0.91876
     Eigenvalues ---    0.93115   0.93345   0.93777   0.94184   0.94803
     Eigenvalues ---    0.95949   0.96655   0.97117   0.98385   0.98473
     Eigenvalues ---    1.03013   1.12054   1.12908   1.15465   1.15613
     Eigenvalues ---    1.16468   1.18976   1.21588
 RFO step:  Lambda=-2.50703835D-04 EMin= 4.03770352D-06
 Linear search not attempted -- first point.
 Maximum step size (   0.300) exceeded in Quadratic search.
    -- Step size scaled by   0.481
 Variable       Old X    -DE/DX   Delta X   Delta X   Delta X     New X
                                 (Linear)    (Quad)   (Total)
    X1       -3.27361  -0.00000   0.00000   0.00000   0.00000  -3.27361
    Y1      -12.91299  -0.00000   0.00000   0.00000   0.00000 -12.91299
    Z1       -6.86143  -0.00000   0.00000   0.00000   0.00000  -6.86143
    X2       -2.56802  -0.00000   0.00000   0.00000   0.00000  -2.56802
    Y2      -10.33765  -0.00000   0.00000   0.00000   0.00000 -10.33765
    Z2       -4.47517  -0.00000   0.00000   0.00000   0.00000  -4.47517
    X3       -3.89643   0.00000   0.00000   0.00106   0.00106  -3.89537
    Y3      -11.02716   0.00001   0.00000   0.00183   0.00183 -11.02533
    Z3       -2.37540   0.00000   0.00000   0.00145   0.00145  -2.37395
    X4       -5.40752  -0.00003   0.00000  -0.00454  -0.00454  -5.41206
    Y4      -13.93756   0.00003   0.00000   0.00487   0.00487 -13.93269
    Z4       -2.38310   0.00002   0.00000   0.00261   0.00261  -2.38049
    X5        2.36609  -0.00000   0.00000   0.00000   0.00000   2.36609
    Y5        1.51968  -0.00000   0.00000   0.00000   0.00000   1.51968
    Z5       -4.89988  -0.00000   0.00000   0.00000   0.00000  -4.89988
    X6        4.09807  -0.00000   0.00000   0.00204   0.00204   4.10010
    Y6       -0.36246   0.00000   0.00000   0.00251   0.00251  -0.35994
    Z6       -4.77744   0.00001   0.00000   0.00881   0.00881  -4.76863
    X7        7.04649   0.00001   0.00000   0.00426   0.00426   7.05075
    Y7       -0.12105  -0.00001   0.00000   0.00143   0.00143  -0.11962
    Z7       -6.15978   0.00004   0.00000   0.01342   0.01342  -6.14635
    X8       -8.32166  -0.00000   0.00000   0.00000   0.00000  -8.32166
    Y8        0.52953  -0.00000   0.00000   0.00000   0.00000   0.52953
    Z8        1.68612  -0.00000   0.00000   0.00000   0.00000   1.68612
    X9       -8.65375   0.00000   0.00000   0.00131   0.00131  -8.65243
    Y9        0.37851   0.00000   0.00000  -0.00238  -0.00238   0.37614
    Z9       -0.84595   0.00000   0.00000  -0.00001  -0.00001  -0.84596
   X10      -11.21960   0.00003   0.00000   0.00478   0.00478 -11.21482
   Y10        1.69827   0.00005   0.00000   0.00081   0.00081   1.69907
   Z10       -2.36821  -0.00000   0.00000  -0.00308  -0.00308  -2.37129
   X11       -1.81558   0.00002   0.00000   0.00364   0.00364  -1.81195
   Y11       -3.55194   0.00004   0.00000   0.00156   0.00156  -3.55038
   Z11       -0.42723   0.00006   0.00000   0.00760   0.00760  -0.41963
   X12       -2.36055   0.00002   0.00000   0.00937   0.00937  -2.35118
   Y12       -7.24151   0.00000   0.00000  -0.00107  -0.00107  -7.24258
   Z12       -1.61544   0.00000   0.00000   0.00212   0.00212  -1.61332
   X13       -3.78740   0.00001   0.00000   0.00692   0.00692  -3.78047
   Y13       -9.14920   0.00001   0.00000   0.00072   0.00072  -9.14848
   Z13       -0.61401   0.00000   0.00000   0.00231   0.00231  -0.61169
   X14       -5.11407   0.00004   0.00000   0.01164   0.01164  -5.10244
   Y14       -9.01180   0.00004   0.00000   0.00192   0.00192  -9.00988
   Z14        2.32690   0.00001   0.00000   0.00447   0.00447   2.33137
   X15       -5.07687  -0.00001   0.00000  -0.00170  -0.00170  -5.07857
   Y15       -1.64228  -0.00001   0.00000  -0.00613  -0.00613  -1.64841
   Z15       -0.03168   0.00000   0.00000   0.00412   0.00412  -0.02756
   X16       -6.69807  -0.00000   0.00000   0.00004   0.00004  -6.69803
   Y16       -0.93795  -0.00000   0.00000  -0.00643  -0.00643  -0.94438
   Z16       -1.91669   0.00000   0.00000   0.00254   0.00254  -1.91415
   X17       -6.17794  -0.00002   0.00000   0.00030   0.00030  -6.17764
   Y17       -1.74227  -0.00002   0.00000  -0.01095  -0.01095  -1.75322
   Z17       -5.03687   0.00000   0.00000   0.00379   0.00379  -5.03309
   X18        0.73022  -0.00000   0.00000   0.00091   0.00091   0.73113
   Y18       -1.78009   0.00001   0.00000   0.00559   0.00559  -1.77451
   Z18       -2.72742   0.00002   0.00000   0.00887   0.00887  -2.71855
   X19        3.13576  -0.00000   0.00000   0.00242   0.00242   3.13818
   Y19       -2.37424   0.00001   0.00000   0.00581   0.00581  -2.36843
   Z19       -3.45444   0.00002   0.00000   0.01405   0.01405  -3.44039
   X20        4.52944  -0.00002   0.00000   0.00398   0.00398   4.53342
   Y20       -5.22747   0.00002   0.00000   0.00981   0.00981  -5.21766
   Z20       -2.70885   0.00007   0.00000   0.02665   0.02665  -2.68220
   X21       -1.68714   0.00001   0.00000   0.00519   0.00519  -1.68195
   Y21       -8.03965  -0.00000   0.00000  -0.00157  -0.00157  -8.04123
   Z21       -3.91379  -0.00000   0.00000   0.00076   0.00076  -3.91302
   X22       -0.53943   0.00000   0.00000   0.00579   0.00579  -0.53364
   Y22       -6.92149  -0.00000   0.00000  -0.00293  -0.00293  -6.92442
   Z22       -5.17878  -0.00000   0.00000   0.00007   0.00007  -5.17871
   X23       -6.18403  -0.00000   0.00000  -0.00137  -0.00137  -6.18540
   Y23       -0.69979  -0.00001   0.00000  -0.00200  -0.00200  -0.70179
   Z23        2.08414   0.00000   0.00000   0.00241   0.00241   2.08656
   X24       -5.36814  -0.00000   0.00000  -0.00192  -0.00192  -5.37006
   Y24       -0.95328  -0.00000   0.00000  -0.00088  -0.00088  -0.95416
   Z24        3.94056  -0.00000   0.00000   0.00294   0.00294   3.94349
   X25        0.39127  -0.00000   0.00000  -0.00042  -0.00042   0.39085
   Y25        0.57903   0.00001   0.00000   0.00238   0.00238   0.58141
   Z25       -3.67263   0.00000   0.00000   0.00116   0.00116  -3.67147
   X26       -1.38062   0.00000   0.00000  -0.00165  -0.00165  -1.38227
   Y26        1.57483   0.00000   0.00000   0.00143   0.00143   1.57626
   Z26       -3.45033   0.00000   0.00000  -0.00408  -0.00408  -3.45442
   X27        2.14989   0.00002   0.00000   0.01486   0.01486   2.16475
   Y27       -2.54526   0.00002   0.00000   0.02417   0.02417  -2.52109
   Z27        3.86999   0.00001   0.00000  -0.00137  -0.00137   3.86862
   X28       -0.15883   0.00003   0.00000   0.02021   0.02021  -0.13862
   Y28       -1.34988   0.00001   0.00000   0.03198   0.03198  -1.31791
   Z28        4.71627   0.00006   0.00000   0.00325   0.00325   4.71952
   X29       -0.29695   0.00002   0.00000   0.00905   0.00905  -0.28790
   Y29       -3.65892   0.00006   0.00000   0.03029   0.03029  -3.62863
   Z29        3.15963   0.00003   0.00000   0.00844   0.00844   3.16807
   X30        3.75199   0.00004   0.00000   0.01594   0.01594   3.76793
   Y30       -4.08001  -0.00002   0.00000   0.02246   0.02246  -4.05754
   Z30        5.61716  -0.00005   0.00000  -0.00396  -0.00396   5.61320
   X31       -0.82965   0.00001   0.00000   0.02159   0.02159  -0.80806
   Y31        0.34958  -0.00001   0.00000   0.03211   0.03211   0.38169
   Z31        3.79702   0.00001   0.00000   0.00201   0.00201   3.79904
   X32       -0.78545   0.00001   0.00000   0.02558   0.02558  -0.75987
   Y32       -1.63333  -0.00000   0.00000   0.03720   0.03720  -1.59613
   Z32        6.64595  -0.00001   0.00000   0.00582   0.00582   6.65177
   X33        4.86854  -0.00001   0.00000   0.01028   0.01028   4.87881
   Y33       -5.47889   0.00001   0.00000   0.01931   0.01931  -5.45958
   Z33        4.58733  -0.00000   0.00000  -0.00576  -0.00576   4.58157
   X34        2.57986   0.00001   0.00000   0.01729   0.01729   2.59715
   Y34       -5.04465  -0.00000   0.00000   0.02604   0.02604  -5.01861
   Z34        7.01532  -0.00001   0.00000  -0.00034  -0.00034   7.01498
   X35        5.02150   0.00000   0.00000   0.02075   0.02075   5.04225
   Y35       -2.78368  -0.00001   0.00000   0.02101   0.02101  -2.76267
   Z35        6.60575  -0.00001   0.00000  -0.00828  -0.00828   6.59748
   X36        3.10702  -0.00000   0.00000   0.01186   0.01186   3.11888
   Y36       -1.68732   0.00000   0.00000   0.01845   0.01845  -1.66886
   Z36        2.26884   0.00001   0.00000  -0.00614  -0.00614   2.26270
   X37        4.04029   0.00003   0.00000   0.02084   0.02084   4.06113
   Y37        7.31508   0.00005   0.00000   0.01837   0.01837   7.33345
   Z37        0.45163   0.00003   0.00000   0.00716   0.00716   0.45879
   X38        1.61457   0.00003   0.00000   0.02441   0.02441   1.63899
   Y38        5.75858   0.00004   0.00000   0.01472   0.01472   5.77329
   Z38        0.69551   0.00004   0.00000   0.02002   0.02002   0.71554
   X39        1.80153   0.00000   0.00000   0.03431   0.03431   1.83584
   Y39        4.73856   0.00000   0.00000   0.01731   0.01731   4.75588
   Z39        2.48763   0.00000   0.00000   0.02050   0.02050   2.50812
   X40        1.67720   0.00000   0.00000   0.01917   0.01917   1.69636
   Y40        4.41352   0.00000   0.00000   0.01227   0.01227   4.42579
   Z40       -0.86429   0.00000   0.00000   0.02153   0.02153  -0.84275
   X41        3.62304   0.00001   0.00000   0.00975   0.00975   3.63279
   Y41        9.43002   0.00004   0.00000   0.01539   0.01539   9.44541
   Z41       -1.41322   0.00002   0.00000   0.00623   0.00623  -1.40699
   X42        2.12049   0.00000   0.00000   0.01189   0.01189   2.13239
   Y42       10.60837   0.00000   0.00000   0.01478   0.01478  10.62315
   Z42       -0.64778   0.00000   0.00000   0.01150   0.01150  -0.63628
   X43        2.89997   0.00000   0.00000   0.00311   0.00311   2.90308
   Y43        8.52879   0.00000   0.00000   0.01242   0.01242   8.54122
   Z43       -3.12561   0.00000   0.00000   0.01057   0.01057  -3.11503
   X44        6.10101   0.00002   0.00000   0.01902   0.01902   6.12003
   Y44        5.59263   0.00004   0.00000   0.01933   0.01933   5.61196
   Z44       -0.57867   0.00002   0.00000   0.00097   0.00097  -0.57770
   X45        7.85067   0.00000   0.00000   0.01891   0.01891   7.86957
   Y45        6.67489   0.00000   0.00000   0.02005   0.02005   6.69494
   Z45       -0.44357   0.00000   0.00000  -0.00360  -0.00360  -0.44717
   X46        5.66033   0.00000   0.00000   0.01374   0.01374   5.67407
   Y46        5.29918   0.00000   0.00000   0.01975   0.01975   5.31893
   Z46       -2.57525   0.00000   0.00000   0.00204   0.00204  -2.57320
   X47        4.92694   0.00004   0.00000   0.03083   0.03083   4.95777
   Y47        8.26768   0.00006   0.00000   0.02375   0.02375   8.29143
   Z47        3.01114   0.00002   0.00000   0.00198   0.00198   3.01312
   X48        6.70987  -0.00000   0.00000   0.02543   0.02543   6.73530
   Y48        9.24693   0.00001   0.00000   0.02984   0.02984   9.27677
   Z48        2.66776   0.00000   0.00000  -0.00827  -0.00827   2.65949
   X49        5.27791   0.00001   0.00000   0.04281   0.04281   5.32072
   Y49        6.58404   0.00001   0.00000   0.02586   0.02586   6.60990
   Z49        4.15052  -0.00000   0.00000   0.00161   0.00161   4.15213
   X50        2.90177   0.00061   0.00000   0.09079   0.09079   2.99256
   Y50        3.30795   0.00058   0.00000   0.02019   0.02019   3.32814
   Z50        7.03290   0.00025   0.00000   0.01759   0.01759   7.05048
   X51        3.12268   0.00004   0.00000   0.03229   0.03229   3.15497
   Y51        9.92423   0.00004   0.00000   0.01844   0.01844   9.94266
   Z51        4.50700   0.00003   0.00000   0.00975   0.00975   4.51676
   X52        4.39392   0.00006   0.00000   0.04082   0.04082   4.43474
   Y52       10.71236   0.00006   0.00000   0.02452   0.02452  10.73689
   Z52        6.98339   0.00002   0.00000   0.00349   0.00349   6.98688
   X53        1.44285   0.00001   0.00000   0.03850   0.03850   1.48135
   Y53        8.83036   0.00000   0.00000   0.01272   0.01272   8.84307
   Z53        4.99700   0.00000   0.00000   0.01841   0.01841   5.01541
   X54        2.53622   0.00000   0.00000   0.02084   0.02084   2.55705
   Y54       11.60873   0.00000   0.00000   0.01557   0.01557  11.62430
   Z54        3.45003   0.00000   0.00000   0.01151   0.01151   3.46154
   X55        2.68187   0.00004   0.00000   0.04051   0.04051   2.72238
   Y55       12.36976   0.00002   0.00000   0.01603   0.01603  12.38578
   Z55        8.60446   0.00004   0.00000   0.01192   0.01192   8.61639
   X56        4.88024   0.00001   0.00000   0.05395   0.05395   4.93419
   Y56        8.98986   0.00001   0.00000   0.02671   0.02671   9.01657
   Z56        8.02186  -0.00000   0.00000   0.00094   0.00094   8.02280
   X57        6.16518  -0.00000   0.00000   0.03398   0.03398   6.19917
   Y57       11.71505   0.00001   0.00000   0.03301   0.03301  11.74805
   Z57        6.58106   0.00000   0.00000  -0.00518  -0.00518   6.57588
   X58        3.61597   0.00000   0.00000   0.04617   0.04617   3.66214
   Y58       12.90530   0.00000   0.00000   0.02035   0.02035  12.92565
   Z58       10.36714   0.00000   0.00000   0.00758   0.00758  10.37471
   X59        2.15248   0.00000   0.00000   0.02704   0.02704   2.17951
   Y59       14.11034  -0.00001   0.00000   0.01350   0.01350  14.12384
   Z59        7.61737   0.00001   0.00000   0.01470   0.01470   7.63208
   X60        0.94378   0.00001   0.00000   0.04781   0.04781   0.99159
   Y60       11.36570   0.00000   0.00000   0.00734   0.00734  11.37305
   Z60        9.09749   0.00000   0.00000   0.02006   0.02006   9.11756
   X61        6.41691   0.00001   0.00000   0.02232   0.02232   6.43923
   Y61        3.04818   0.00004   0.00000   0.01974   0.01974   3.06792
   Z61        0.74697   0.00002   0.00000   0.00092   0.00092   0.74788
   X62        9.12089   0.00000   0.00000   0.02269   0.02269   9.14358
   Y62        2.07437   0.00002   0.00000   0.02049   0.02049   2.09486
   Z62        0.41698   0.00004   0.00000   0.00358   0.00358   0.42056
   X63        5.10320   0.00000   0.00000   0.02370   0.02370   5.12690
   Y63        1.68851   0.00000   0.00000   0.01822   0.01822   1.70673
   Z63       -0.08762   0.00000   0.00000   0.00101   0.00101  -0.08661
   X64        5.95717   0.00000   0.00000   0.02229   0.02229   5.97946
   Y64        3.14300   0.00000   0.00000   0.01971   0.01971   3.16271
   Z64        2.76198   0.00000   0.00000   0.00099   0.00099   2.76297
   X65        9.45675  -0.00002   0.00000   0.02153   0.02153   9.47829
   Y65       -0.57540   0.00003   0.00000   0.02350   0.02350  -0.55189
   Z65        1.50000   0.00007   0.00000   0.01149   0.01149   1.51149
   X66        9.62969   0.00000   0.00000   0.02365   0.02365   9.65333
   Y66        2.06899  -0.00000   0.00000   0.01520   0.01520   2.08420
   Z66       -1.59083   0.00001   0.00000   0.00382   0.00382  -1.58701
   X67       10.42719   0.00000   0.00000   0.02192   0.02192  10.44911
   Y67        3.38035   0.00000   0.00000   0.02302   0.02302   3.40336
   Z67        1.35995   0.00000   0.00000   0.00110   0.00110   1.36106
[...]
 .00262866,0.00401917,-0.00519105,-0.00017782,0.00014278,0.00002933,0.0
 0012846,-0.00026487,0.00052810,-0.05278530,0.12359986,-0.15951179,0.00
 023875,-0.00019230,0.00057517,-0.00002766,-0.00019095,-0.00017812,0.05
 687730,-0.13591030,0.16811198,0.,0.,0.,0.,0.,0.,0.00000125,0.00000297,
 0.00000087,-0.00000142,-0.00000300,-0.00000036,0.,0.,0.,-0.00001444,0.
 00000931,0.00000134,0.00000337,-0.00000330,-0.00000086,0.,0.,0.,0.0000
 0326,-0.00000112,0.00000089,-0.00000201,0.00000026,-0.00000020,0.00001
 099,0.00001433,-0.00000996,-0.00000287,-0.00000659,-0.00000004,0.00000
 220,0.00000100,-0.00000378,-0.00000080,-0.00000038,0.00000142,-0.00000
 599,-0.00000123,0.00000244,0.00000161,-0.00000183,-0.00000178,-0.00000
 125,-0.00000001,0.00000255,-0.00000704,-0.00001798,0.00001143,0.000001
 82,0.00000553,-0.00000305,0.00000282,-0.00000880,0.00000291,0.00000095
 ,0.00000382,0.00000228,0.00000021,0.00000113,0.00000067,0.00000032,-0.
 00000125,-0.00000277,0.00000067,0.00000046,-0.00000027,0.00000939,0.00
 001348,-0.00001087,0.00000197,0.00000260,-0.00000137,0.00000097,0.0000
 0176,-0.00000441,-0.00000123,-0.00000012,-0.00000249,0.00000022,-0.000
 00113,0.00000623,-0.00000052,-0.00000048,0.00000077,0.00000059,0.00000
 092,-0.00000081,-0.00000009,-0.00000087,0.00000031,0.00000012,0.000000
 59,-0.00000023,-0.00000058,-0.00000059,0.00000052,0.00000051,-0.000000
 06,-0.00000081,-0.00000010,0.00000025,0.00000032,0.00005970,0.00000918
 ,0.00015735,0.00002241,0.00001082,0.00000092,-0.00000405,-0.00000113,-
 0.00001127,-0.00000269,0.00000598,0.00000071,-0.00001368,0.00027745,-0
 .00001680,-0.00004478,-0.00001252,-0.00004131,0.00014024,0.00018994,0.
 00001693,-0.00001357,0.00000057,0.00001399,-0.00000345,-0.00000077,-0.
 00000195,-0.00000309,0.00001278,0.00000420,-0.00001443,-0.00007456,-0.
 00004391,0.00000421,-0.00000970,-0.00000289,0.00000512,0.00001458,0.00
 001686,-0.00000090,0.00000826,0.00002303,0.00003096,-0.00003008,0.0000
 2793,-0.00002585,-0.00000031,-0.00000326,-0.00000392,0.00001214,-0.000
 00752,-0.00002349,0.00000179,-0.00000959,0.00001353,-0.00001378,0.0000
 1302,0.00000205,0.00000377,-0.00000461,0.00001731,-0.00000362,0.000005
 00,-0.00000259,0.00000322,0.00000240,-0.00001175,0.00000984,-0.0000010
 6,0.00000207,0.00000541,-0.00000451,0.00000127,0.00000347,-0.00000013,
 -0.00000560,-0.00000281,0.00000520,-0.00000021,-0.00000309,0.00000158,
 0.00000325,-0.00000288,-0.00000234,0.00000295,0.00000049,-0.00000255,-
 0.00000061,0.00000061,0.00000040,0.00000059,0.00000008,-0.00000136,0.0
 0000174,-0.00000200,0.00000067,-0.00000046,-0.00000022,0.00000089,-0.0
 0000060,-0.00000019,0.00000013,-0.00001440,-0.00000817,-0.00002617,0.0
 0000790,0.00000702,0.00000497,0.00001182,0.00000304,0.00001245,-0.0000
 0230,0.00000219,-0.00000048,-0.00000244,-0.00000655,-0.00000419,-0.000
 00064,0.00000123,-0.00000055,-0.00000372,-0.00000516,0.00000322,-0.000
 00190,0.00000050,0.00000150,0.00000015,0.00000286,0.00000144,0.0000028
 2,0.00000054,0.00000216,0.00065570,0.00111069,-0.00079030,-0.01113790,
 -0.01210931,-0.02226354,0.00004518,-0.00001497,0.00016381,0.00045142,-
 0.00030768,0.00072399,-0.09028638,-0.04551944,-0.08404263,-0.00365371,
 -0.00346330,0.00208169,0.00069137,0.00080740,-0.00039297,-0.00445203,-
 0.00464868,-0.00755787,0.09654468,0.,0.,0.,0.,0.,0.,-0.00000006,0.,0.0
 0000004,-0.00000004,0.00000005,0.00000038,0.,0.,0.,0.00000149,0.000006
 00,-0.00000315,0.00000001,-0.00000165,0.00000378,0.,0.,0.,-0.00000323,
 0.00000131,-0.00000286,0.00000250,-0.00000169,0.00000203,-0.00000735,0
 .00000191,-0.00001620,0.00000090,0.00000005,0.00000301,0.00000022,-0.0
 0000070,-0.00000197,-0.00000038,0.00000009,0.00000122,0.00000393,-0.00
 000145,0.00000336,0.00000004,-0.00000148,-0.00000547,-0.00000027,0.000
 00047,0.00000378,-0.00000295,-0.00001043,0.00001032,-0.00000195,0.0000
 0425,-0.00000021,0.00000281,-0.00000556,0.00000259,0.00000080,-0.00000
 014,-0.00000155,-0.00000038,0.00000040,-0.00000042,-0.00000211,0.00000
 173,-0.00000014,-0.00000034,-0.00000042,0.00000084,0.00000281,0.000007
 41,-0.00000340,-0.00000035,0.00000083,-0.00000266,-0.00000598,-0.00000
 710,-0.00000526,-0.00000644,-0.00000723,-0.00000455,0.00001405,0.00001
 307,0.00001516,0.00000031,0.00000002,-0.00000005,-0.00000230,-0.000000
 29,-0.00000085,-0.00000114,-0.00000044,0.00000034,-0.00000054,-0.00000
 011,0.00000023,0.00000046,0.00000001,-0.00000034,0.00000121,-0.0000018
 4,0.00000097,-0.00000092,-0.00000151,-0.00000203,0.00010479,0.00002505
 ,0.00011603,-0.00002493,-0.00000567,-0.00000584,0.00000539,0.00000128,
 -0.00000327,0.00000365,0.00000265,-0.00000289,-0.00007709,0.00012002,0
 .00017519,0.00001485,0.00001132,-0.00005048,0.00019969,0.00015661,0.00
 004454,-0.00004204,-0.00003441,-0.00001014,0.00000932,-0.00001007,-0.0
 0000196,0.00000754,0.00001192,-0.00000020,-0.00009895,-0.00006841,-0.0
 0002533,0.00003367,-0.00001169,0.00000699,0.00001957,0.00000166,0.0000
 2043,0.00001837,0.00002512,-0.00000234,0.00001983,0.00000987,0.0000107
 4,-0.00003098,-0.00001584,0.00000978,0.00000885,0.00000129,-0.00000841
 ,-0.00001863,-0.00000033,0.00000025,0.00000392,0.00001062,0.00000161,0
 .00000445,0.00000019,-0.00000320,0.00002034,0.00000916,0.00000479,-0.0
 0000131,-0.00000161,-0.00000092,-0.00000316,-0.00000159,0.00000220,0.0
 0000648,-0.00000013,-0.00000403,0.00000828,0.00000402,0.00000710,-0.00
 000711,-0.00000834,-0.00001159,0.00000343,0.00000598,-0.00000266,-0.00
 000102,-0.00000362,0.00000207,0.00000203,-0.00000067,0.00000295,-0.000
 00273,-0.00000064,0.00000058,0.00000652,0.00000393,0.00000702,-0.00000
 060,-0.00000042,-0.00000083,-0.00000058,-0.00000075,0.00000011,0.00000
 184,0.00000403,-0.00000031,-0.00000367,0.00001215,-0.00001983,0.000003
 13,-0.00000518,0.00000314,0.00000648,0.00000264,0.00000813,-0.00000515
 ,0.00000233,-0.00000162,-0.00000130,0.00000319,-0.00000432,0.00000018,
 0.00000118,-0.00000043,-0.00000215,-0.00000278,0.00000253,0.00000174,-
 0.00000134,0.00000069,-0.00000007,0.00000026,-0.00000092,0.00000228,-0
 .00000027,0.00000360,0.00017014,0.00066538,-0.00170106,-0.00744653,-0.
 00943745,-0.01592912,-0.00000724,-0.00006785,-0.00001204,0.00007633,-0
 .00022057,0.00088928,-0.04565472,-0.10231644,-0.09567897,-0.00326005,-
 0.00152894,0.00162122,0.00055023,0.00077365,0.00049058,0.00925565,0.01
 248788,0.01944565,0.05383476,0.10729708,0.,0.,0.,0.,0.,0.,0.00000193,0
 .00000427,0.00000100,-0.00000192,-0.00000399,-0.00000029,0.,0.,0.,0.00
 000774,0.00000690,-0.00000679,-0.00000681,-0.00000400,0.00000472,0.,0.
 ,0.,0.00000327,-0.00000106,0.00000119,-0.00000204,0.00000027,-0.000000
 24,0.00001314,0.00001694,-0.00001231,-0.00000367,-0.00000806,0.0000005
 3,0.00000276,0.00000113,-0.00000499,-0.00000115,-0.00000046,0.00000214
 ,-0.00000652,-0.00000151,0.00000292,0.00000193,-0.00000217,-0.00000242
 ,-0.00000134,0.00000019,0.00000283,-0.00001476,-0.00001793,0.00001427,
 -0.00000046,0.00001189,-0.00000482,0.00000295,-0.00000972,0.00000349,0
 .00000141,0.00000455,0.00000214,0.00000030,0.00000135,0.00000052,0.000
 00011,-0.00000133,-0.00000290,0.00000076,0.00000066,-0.00000025,0.0000
 0804,0.00000952,-0.00000853,0.00000080,0.00000122,-0.00000048,-0.00000
 055,0.00000333,-0.00000501,-0.00000013,0.00000107,-0.00000201,0.000000
 55,-0.00000325,0.00000651,0.00000002,-0.00000083,0.00000104,0.00000112
 ,0.00000096,-0.00000054,0.,-0.00000060,0.00000024,-0.00000008,0.000000
 18,-0.00000067,-0.00000076,-0.00000071,0.00000058,-0.00000036,0.000000
 91,-0.00000083,-0.00000026,0.00000016,0.00000053,-0.00009014,-0.000104
 76,-0.00000129,0.00003447,-0.00001134,0.00003116,-0.00001382,-0.000004
 85,-0.00001151,-0.00000200,0.00000044,0.00000050,0.00025535,0.00012503
 ,0.00032143,0.00000715,-0.00000705,0.00000242,0.00002839,0.00006242,-0
 .00015323,-0.00001236,0.00000417,0.00000801,-0.00001358,0.00000287,-0.
 00001294,0.00001061,0.00000976,0.00000306,-0.00001035,-0.00002345,-0.0
 0002843,-0.00001605,-0.00000215,-0.00000484,-0.00000410,0.00000237,-0.
 00000224,0.00000211,-0.00000471,0.00002453,0.00000802,0.00000768,0.000
 00217,-0.00001744,-0.00000833,-0.00000454,0.00000059,0.00000072,0.0000
 0079,0.00000239,-0.00000770,-0.00000275,0.00000744,-0.00000196,0.00000
 429,0.00000070,0.00000013,0.00000186,0.00000564,0.00000274,-0.00000153
 ,-0.00000084,0.00000176,0.00000652,-0.00000381,0.00000074,-0.00000266,
 0.00000136,0.00000150,-0.00000195,0.00000084,0.00000647,0.00000202,-0.
 00001092,-0.00000822,-0.00000442,0.00000180,-0.00000349,0.00000062,0.0
 0000161,-0.00000309,-0.00000196,0.00000371,0.00000179,0.00000027,-0.00
 000148,0.00000144,0.00000165,0.00000238,0.00000278,0.00000229,0.000002
 66,-0.00000367,-0.00000029,-0.00000154,-0.00000084,0.00000137,0.000000
 42,0.00000136,-0.00000005,-0.00000539,-0.00000687,-0.00000334,0.000003
 52,0.00000518,-0.00000197,0.00000260,0.00000146,0.00000525,-0.00000002
 ,0.00000090,-0.00000341,-0.00000176,-0.00000452,-0.00000099,-0.0000006
 4,-0.00000007,-0.00000023,-0.00000125,-0.00000193,0.00000170,-0.000001
 78,0.00000026,0.00000056,0.00000052,0.00000190,0.00000016,0.00000137,0
 .00000051,0.00000123,0.00033118,-0.00003634,0.00118476,0.00388345,0.00
 526375,0.00877293,-0.00007687,0.00001972,-0.00008665,-0.00009942,-0.00
 047058,0.00016730,-0.08499504,-0.09631599,-0.22545956,0.00173116,0.001
 84735,0.00061966,-0.00070794,-0.00029793,0.00063171,-0.00656307,-0.009
 81452,-0.01572115,0.09198906,0.10446269,0.24078123,0.,0.,0.,0.,0.,0.,0
 .00000023,0.00000064,0.00000006,-0.00000003,-0.00000085,-0.00000095,0.
 ,0.,0.,-0.00004805,-0.00000237,0.00002218,0.00002537,0.00000395,-0.000
 01442,0.,0.,0.,-0.00000040,0.00000120,0.00000104,0.00000073,-0.0000018
 0,0.00000002,-0.00001286,0.00001147,0.00001966,0.00000252,-0.00000470,
 -0.00000540,-0.00000064,0.00000256,0.00000359,0.00000108,-0.00000049,-
 0.00000262,0.00000767,-0.00000881,-0.00000453,-0.00000481,0.00000521,0
 .00000760,0.00000212,-0.00000282,-0.00000616,0.00002298,0.00000662,-0.
 00001708,0.00000233,-0.00000493,0.00000133,0.00000218,-0.00000050,-0.0
 0000097,-0.00000182,0.00000106,0.00000498,-0.00000077,0.,0.00000033,-0
 .00000542,0.00000208,0.00000192,0.00000060,0.00000187,-0.00000088,-0.0
 0000608,0.00000048,-0.00000318,0.00000455,0.00000296,0.00000291,-0.000
 00242,0.00000561,0.00000435,0.00000456,0.00001348,0.00000410,-0.000004
 02,-0.00001568,-0.00001343,0.00000064,-0.00000006,-0.00000013,0.000001
 46,0.00000236,0.00000048,0.00000113,-0.00000054,-0.00000045,0.00000065
 ,-0.00000204,-0.00000047,0.00000006,0.00000008,0.00000003,-0.00000219,
 0.00000251,0.00000037,-0.00000032,0.00000217,0.00000198,0.00010482,-0.
 00015760,-0.00001896,0.00002375,0.00001266,0.00001323,-0.00000570,-0.0
 0000041,-0.00000784,-0.00000125,0.00000271,0.00000230,0.00014843,-0.00
 001961,-0.00028507,0.00023668,0.00011959,-0.00015196,-0.00005595,0.000
 01932,0.00000538,-0.00006817,0.00000111,0.00009064,0.00000040,0.000000
 95,0.00001531,-0.00001419,-0.00001035,0.00000125,-0.00000744,-0.000030
 51,-0.00000081,-0.00000653,0.00000532,-0.00000083,0.00000330,0.0000072
 2,-0.00000038,0.00000565,-0.00002945,0.00000999,-0.00001216,0.00004154
 ,-0.00001572,-0.00000688,-0.00001637,-0.00000252,0.00000306,-0.0000030
 5,0.00000263,0.00000936,-0.00002044,0.00000001,0.00000223,0.00000706,-
 0.00000185,0.00000505,0.00000146,0.00000674,0.00000139,0.00000350,-0.0
 0000091,0.00000154,0.00000021,0.00000530,-0.00000030,-0.00000604,-0.00
 000130,-0.00000046,-0.00000025,-0.00000153,0.00002516,-0.00000290,-0.0
 0002230,-0.00001511,-0.00000695,0.00001655,0.,-0.00000111,0.00000266,-
 0.00000365,0.00000565,-0.00000112,0.00000880,-0.00000102,-0.00000362,0
 .00000365,-0.00000363,-0.00000804,0.00000112,0.00000063,0.00000227,0.0
 0000259,-0.00000376,0.00000184,-0.00000092,0.00000255,-0.00000313,-0.0
 0000121,0.00000054,0.00000107,-0.00001420,0.00000946,-0.00001092,0.000
 01249,0.00000694,0.00000265,0.00000895,0.00000914,0.00001518,0.0000018
 9,-0.00000382,-0.00001482,-0.00000420,-0.00000309,0.00000046,-0.000003
 06,-0.00000763,-0.00000239,-0.00000326,-0.00000331,0.00000379,-0.00000
 155,0.00000012,0.00000241,0.00000231,-0.00000154,-0.00000546,0.0000035
 4,0.00000366,0.00000326,0.00071272,0.00122461,-0.00072099,-0.01947392,
 0.01429854,0.01181377,0.00055268,-0.00090417,0.00040263,0.00004702,-0.
 00011080,-0.00000345,-0.18609919,0.10312068,0.08549529,0.00069613,0.00
 041639,-0.00058987,-0.00328989,-0.00399045,0.00120653,-0.00680247,0.00
 452725,0.00418213,0.01101305,-0.00771196,-0.00566312,0.20224425,0.,0.,
 0.,0.,0.,0.,-0.00000091,-0.00000227,-0.00000083,0.00000098,0.00000250,
 0.00000079,0.,0.,0.,0.00000692,-0.00000483,-0.00000037,-0.00000083,0.0
 0000327,0.00000148,0.,0.,0.,-0.00000194,0.00000040,-0.00000179,0.00000
 139,-0.00000016,0.00000082,-0.00000782,-0.00001285,-0.00000357,0.00000
 173,0.00000646,0.00000291,-0.00000103,-0.00000165,0.00000048,0.,0.0000
 0044,0.00000046,0.00000243,0.00000283,0.00000113,0.00000027,-0.0000009
 2,-0.00000357,0.00000007,0.00000104,0.00000210,0.00000400,0.00000900,-
 0.00000338,0.00000081,-0.00000627,0.00000276,-0.00000190,0.00000550,-0
 .00000135,-0.00000002,-0.00000351,-0.00000371,-0.00000013,-0.00000081,
 -0.00000078,0.00000059,0.00000069,0.00000076,-0.00000052,-0.00000089,0
 .00000053,-0.00000595,-0.00000344,0.00000588,-0.00000120,-0.00000079,-
 0.00000128,-0.00000113,-0.00000598,0.00000028,-0.00000344,-0.00000608,
 -0.00000204,0.00000558,0.00001041,0.00000505,0.00000010,0.00000045,-0.
 00000079,-0.00000185,-0.00000091,-0.00000019,-0.00000052,0.00000008,0.
 00000008,-0.00000027,0.00000047,0.00000072,0.00000045,0.00000032,-0.00
 000050,0.00000130,-0.00000182,0.00000058,-0.00000010,-0.00000117,-0.00
 000139,0.00016444,-0.00000141,-0.00007352,-0.00003425,0.00001506,-0.00
 002680,0.00001306,0.00000418,0.00000634,0.00000225,-0.00000170,-0.0000
 0165,-0.00034942,0.00015008,-0.00000844,0.00012437,-0.00014129,-0.0000
 3428,-0.00001409,0.00001698,-0.00000593,-0.00001011,-0.00001818,0.0000
 1403,0.00002354,0.00000019,0.00001469,-0.00001062,-0.00001413,-0.00000
 429,-0.00001464,0.00000921,0.00000564,0.00001455,-0.00000502,0.0000090
 5,0.00000148,-0.00000543,0.00000270,0.00000327,0.00001750,-0.00001269,
 -0.00000202,0.00000258,0.00000168,-0.00000168,-0.00000477,0.00000182,0
 .00000235,0.00000003,-0.00000190,-0.00000580,0.00000037,-0.00000560,0.
 00000181,-0.00000375,0.00000281,0.00000144,0.00000222,-0.00000041,0.00
 000645,-0.00000112,0.00000255,-0.00000064,-0.00000115,-0.00000163,-0.0
 0000395,0.00000284,-0.00000067,0.00000153,0.00000206,-0.00000112,0.000
 01569,-0.00000872,-0.00000712,0.00000835,0.00000138,-0.00000056,-0.000
 00074,0.00000633,-0.00000266,-0.00000197,0.00000494,0.00000028,-0.0000
 0193,-0.00000184,0.00000007,0.00000049,-0.00000187,0.00000055,0.000000
 26,-0.00000115,-0.00000051,-0.00000320,0.00000350,-0.00000055,0.000000
 84,0.00000026,0.00000006,0.00000054,0.00000017,-0.00000042,-0.00000226
 ,0.00000960,-0.00000441,0.00000138,-0.00000675,0.00000105,0.00000079,0
 .00000217,0.00000203,-0.00000090,-0.00000020,-0.00000210,0.00000063,0.
 00000240,-0.00000194,-0.00000071,0.00000073,0.00000086,-0.00000048,-0.
 00000063,0.00000008,0.00000156,-0.00000100,-0.00000032,-0.00000006,0.0
 0000017,0.00000054,0.00000009,-0.00000063,0.00000057,-0.00054015,0.001
 72937,-0.00013608,-0.01565321,0.01181624,0.01056869,0.00035690,-0.0000
 9607,-0.00025665,0.00009554,-0.00010400,0.00003869,0.10422421,-0.12792
 649,-0.06536506,0.00088701,0.00093665,-0.00022987,-0.00371563,-0.00194
 966,0.00166935,0.01529510,-0.01195880,-0.01181985,0.00991704,-0.007891
 52,-0.00468513,-0.11080240,0.13540245,0.,0.,0.,0.,0.,0.,0.00000046,0.0
 0000108,0.00000054,-0.00000064,-0.00000130,-0.00000041,0.,0.,0.,0.0000
 1472,-0.00000209,-0.00000668,-0.00001110,-0.00000230,0.00000151,0.,0.,
 0.,0.00000438,-0.00000186,0.00000327,-0.00000346,0.00000216,-0.0000021
 5,0.00001792,0.00000278,0.00000387,-0.00000330,-0.00000229,-0.00000168
 ,0.00000112,0.00000044,-0.00000094,-0.00000028,-0.00000014,0.00000012,
 -0.00000880,0.00000298,-0.00000090,0.00000218,-0.00000049,0.00000401,-
 0.00000093,0.00000005,-0.00000166,-0.00001083,-0.00000085,0.00000239,0
 .00000213,0.00000148,-0.00000265,-0.00000256,0.00000140,-0.00000090,0.
 00000022,0.00000215,0.00000157,0.00000093,0.00000020,0.00000097,0.0000
 0342,-0.00000286,-0.00000243,0.00000044,0.00000005,-0.00000072,0.00000
 272,-0.00000152,0.00000004,-0.00000057,-0.00000058,0.00000153,0.000008
 55,0.00000542,-0.00000011,0.00000272,0.00000100,0.00000085,-0.00001198
 ,-0.00000633,-0.00000521,-0.00000131,-0.00000042,0.00000068,0.00000158
 ,0.00000010,-0.00000003,0.00000028,-0.00000012,0.00000011,0.00000055,0
 .00000171,-0.00000001,-0.00000093,-0.00000043,0.00000070,0.00000052,0.
 00000022,-0.00000195,0.00000149,0.00000092,0.00000147,-0.00007997,0.00
 004069,-0.00000174,0.00001985,0.00001428,0.00000391,-0.00000422,-0.000
 00306,-0.00000303,0.00000074,0.,0.00000351,-0.00006432,0.00021543,0.00
 010035,-0.00016888,-0.00004855,0.00004378,-0.00001430,-0.00003622,-0.0
 0000262,0.00009282,0.00001216,-0.00001137,-0.00002120,0.00000384,-0.00
 003312,0.00000808,0.00001315,0.00001023,0.00002970,0.00001521,-0.00002
 335,-0.00000120,-0.00001278,-0.00000648,-0.00000249,0.00000395,-0.0000
 0404,-0.00001681,0.00000277,0.00001329,0.00001121,-0.00003296,0.000014
 82,-0.00000618,0.00000878,-0.00000347,-0.00000723,0.00000846,-0.000000
 56,-0.00001151,0.00000904,-0.00000541,0.00000584,-0.00001095,0.0000065
 7,0.00000017,0.00000224,-0.00000440,0.00000389,-0.00000716,0.00000234,
 -0.00000135,0.00000201,0.00000040,-0.00000565,0.00000736,-0.00000062,-
 0.00000083,0.00000273,-0.00000075,-0.00002670,0.00000415,0.00000482,0.
 00000960,0.00000740,0.00000429,-0.00000450,-0.00001065,0.00000514,0.00
 000510,-0.00000567,-0.00000288,-0.00000427,0.00000314,-0.00000183,0.00
 000171,0.00000685,0.00000760,-0.00000612,-0.00000456,-0.00001253,0.000
 00075,0.00000069,0.00000018,0.00000032,-0.00000219,0.00000294,-0.00000
 202,-0.00000521,0.00000021,-0.00000131,-0.00002077,0.00000999,-0.00000
 230,0.00000613,-0.00000204,-0.00000188,-0.00000053,-0.00000257,0.00000
 027,0.00000160,0.00000150,0.00000086,-0.00000505,0.00000246,0.00000063
 ,0.00000106,0.00000111,0.00000056,0.00000002,-0.00000137,-0.00000195,0
 .00000127,-0.00000047,-0.00000070,0.00000150,0.00000189,-0.00000135,0.
 00000004,-0.00000245,0.00028217,-0.00113064,0.00001683,0.00545008,-0.0
 0406753,-0.00413271,-0.00008212,0.00067385,-0.00003673,0.00006859,-0.0
 0004451,-0.00004361,0.08574997,-0.06495733,-0.10427589,-0.00047071,0.0
 0048830,0.00046836,0.00113634,0.00129160,0.00067101,-0.01607602,0.0110
 8709,0.01108868,0.01995934,-0.01387247,-0.01107363,-0.09574458,0.07034
 089,0.10721655\\0.,0.,0.,0.,0.,0.,0.,0.,0.,0.,0.,0.,0.,0.,0.,0.,0.,0.,
 0.,0.,0.,0.,0.,0.,0.,0.,0.,0.,0.,0.,0.,0.,-0.00000001,0.,0.,0.,0.,0.,0
 .,0.,0.,0.,0.,0.,0.,0.,0.,0.,0.,0.,0.,0.,0.,0.,0.,0.,0.,0.,0.,0.,0.,0.
 ,0.,0.,0.,0.,0.,0.,0.,0.,0.,0.,0.,0.,0.,0.,0.,0.,0.00000005,-0.0000000
 3,0.,-0.00000007,0.00000004,0.00000002,0.,-0.00000008,-0.00000003,0.00
 000003,0.00000006,0.00000003,-0.00000004,0.00000011,-0.00000004,-0.000
 00004,-0.00000002,0.00000013,0.00000008,-0.00000009,-0.00000007,-0.000
 00006,-0.00000006,0.00000010,0.,0.,0.,0.00000006,0.00000007,-0.0000001
 2,0.,0.,0.,0.,0.,0.,0.,0.,0.,0.,0.,0.,0.,0.,0.,0.,0.,0.,0.,0.,0.,0.,0.
 ,0.,0.,0.,0.,0.,0.,0.,0.,0.,0.,0.,0.,0.,0.,0.,0.,0.,0.,0.,0.,0.,0.,0.,
 0.,0.,0.,0.,0.,0.,0.,0.,0.,0.,0.,0.,0.,0.,0.,0.,0.,0.,0.,0.,0.,0.,0.,0
 .,0.,0.,0.,0.,0.,0.,0.,0.,0.,0.,0.,0.,0.,0.,0.,0.,0.,0.,0.,0.,0.,0.,0.
 ,0.,0.,0.,0.,0.,0.,0.,0.,0.,0.,0.,0.,0.,0.,0.,0.,0.,0.,0.,0.,0.,0.,0.,
 0.,0.,0.,0.,0.,0.,0.,0.,0.,0.,0.,0.,0.,0.,0.,0.,0.,0.,0.,0.,0.,0.,0.,0
 .,0.,0.,0.,0.,0.,0.,0.,0.,0.,0.,0.,0.,0.,0.,0.,0.,0.,0.,0.,0.,0.,0.\\\
 @


 At the touch of love, everyone becomes a poet.
                                -- Plato
 Job cpu time:       2 days  2 hours 57 minutes 53.8 seconds.
 Elapsed time:       0 days  0 hours 49 minutes 18.2 seconds.
 File lengths (MBytes):  RWF=   7820 Int=      0 D2E=      0 Chk=     61 Scr=      2
 Normal termination of Gaussian 16 at Wed Mar  8 03:39:32 2023.
