 Entering Gaussian System, Link 0=g16
 Input=IRC_3_TBAB.com
 Output=IRC_3_TBAB.log
 Initial command:
 /opt/ohpc/pub/apps/gaussian/avx2/g16/l1.exe "/scratch/g16-tmp/Gau-1683891.inp" -scrdir="/scratch/g16-tmp/"
 Entering Link 1 = /opt/ohpc/pub/apps/gaussian/avx2/g16/l1.exe PID=   1683893.
  
 Copyright (c) 1988-2017, Gaussian, Inc.  All Rights Reserved.
  
 This is part of the Gaussian(R) 16 program.  It is based on
 the Gaussian(R) 09 system (copyright 2009, Gaussian, Inc.),
 the Gaussian(R) 03 system (copyright 2003, Gaussian, Inc.),
 the Gaussian(R) 98 system (copyright 1998, Gaussian, Inc.),
 the Gaussian(R) 94 system (copyright 1995, Gaussian, Inc.),
 the Gaussian 92(TM) system (copyright 1992, Gaussian, Inc.),
 the Gaussian 90(TM) system (copyright 1990, Gaussian, Inc.),
 the Gaussian 88(TM) system (copyright 1988, Gaussian, Inc.),
 the Gaussian 86(TM) system (copyright 1986, Carnegie Mellon
 University), and the Gaussian 82(TM) system (copyright 1983,
 Carnegie Mellon University). Gaussian is a federally registered
 trademark of Gaussian, Inc.
  
 This software contains proprietary and confidential information,
 including trade secrets, belonging to Gaussian, Inc.
  
 This software is provided under written license and may be
 used, copied, transmitted, or stored only in accord with that
 written license.
  
 The following legend is applicable only to US Government
 contracts under FAR:
  
                    RESTRICTED RIGHTS LEGEND
  
 Use, reproduction and disclosure by the US Government is
 subject to restrictions as set forth in subparagraphs (a)
 and (c) of the Commercial Computer Software - Restricted
 Rights clause in FAR 52.227-19.
  
 Gaussian, Inc.
 340 Quinnipiac St., Bldg. 40, Wallingford CT 06492
  
  
 ---------------------------------------------------------------
 Warning -- This program may not be used in any manner that
 competes with the business of Gaussian, Inc. or will provide
 assistance to any competitor of Gaussian, Inc.  The licensee
 of this program is prohibited from giving any competitor of
 Gaussian, Inc. access to this program.  By using this program,
 the user acknowledges that Gaussian, Inc. is engaged in the
 business of creating and licensing software in the field of
 computational chemistry and represents and warrants to the
 licensee that it is not a competitor of Gaussian, Inc. and that
 it will not use this program in any manner prohibited above.
 ---------------------------------------------------------------
  

 Cite this work as:
 Gaussian 16, Revision B.01,
 M. J. Frisch, G. W. Trucks, H. B. Schlegel, G. E. Scuseria, 
 M. A. Robb, J. R. Cheeseman, G. Scalmani, V. Barone, 
 G. A. Petersson, H. Nakatsuji, X. Li, M. Caricato, A. V. Marenich, 
 J. Bloino, B. G. Janesko, R. Gomperts, B. Mennucci, H. P. Hratchian, 
 J. V. Ortiz, A. F. Izmaylov, J. L. Sonnenberg, D. Williams-Young, 
 F. Ding, F. Lipparini, F. Egidi, J. Goings, B. Peng, A. Petrone, 
 T. Henderson, D. Ranasinghe, V. G. Zakrzewski, J. Gao, N. Rega, 
 G. Zheng, W. Liang, M. Hada, M. Ehara, K. Toyota, R. Fukuda, 
 J. Hasegawa, M. Ishida, T. Nakajima, Y. Honda, O. Kitao, H. Nakai, 
 T. Vreven, K. Throssell, J. A. Montgomery, Jr., J. E. Peralta, 
 F. Ogliaro, M. J. Bearpark, J. J. Heyd, E. N. Brothers, K. N. Kudin, 
 V. N. Staroverov, T. A. Keith, R. Kobayashi, J. Normand, 
 K. Raghavachari, A. P. Rendell, J. C. Burant, S. S. Iyengar, 
 J. Tomasi, M. Cossi, J. M. Millam, M. Klene, C. Adamo, R. Cammi, 
 J. W. Ochterski, R. L. Martin, K. Morokuma, O. Farkas, 
 J. B. Foresman, and D. J. Fox, Gaussian, Inc., Wallingford CT, 2016.
 
 ******************************************
 Gaussian 16:  ES64L-G16RevB.01 20-Dec-2017
                 6-Mar-2023 
 ******************************************
 %nprocshared=64
 Will use up to   64 processors via shared memory.
 %mem=64GB
 %chk=IRC_3_TBAB.chk
 ----------------------------------------------------------------------
 # irc=(calcfc,maxpoints=120,recalc=3) cam-b3lyp/gen nosymm scf=(qc,max
 cycle=1024,vshift=100) pseudo=read
 ----------------------------------------------------------------------
 1/10=4,18=10,26=3,38=1,42=120,44=3,71=3,172=1/1,23;
 2/12=2,15=1,17=6,18=5,29=1,40=1/2;
 3/5=7,11=2,16=1,17=8,25=1,30=1,71=2,74=-40,140=1/1,2,3;
 4//1;
 5/5=2,7=1024,8=3,10=100,38=5/8;
 8/6=4,10=90,11=11/1;
 11/6=1,8=1,9=11,15=111,16=1,31=1/1,2,10;
 10/6=1,13=1,31=1/2;
 6/7=2,8=2,9=2,10=2,28=1/1;
 7/10=1,18=20,25=1,30=1/1,2,3,16;
 1/10=4,18=10,26=3,42=120,44=3,71=3/23(2);
 2/15=1,29=1/2;
 99/5=20/99;
 2/15=1,29=1/2;
 3/5=7,6=1,11=2,16=1,17=8,25=1,30=1,71=2,74=-40,82=7,140=1/1,2,3;
 4/5=5,16=3,69=1/1;
 5/5=2,7=1024,8=3,10=100,38=5/8;
 8/6=4,10=90,11=11/1;
 11/6=1,8=1,9=11,15=111,16=1,31=1/1,2,10;
 10/6=1,13=1,31=1/2;
 7/10=1,18=20,25=1,30=1/1,2,3,16;
 1/18=10,26=3,42=120,44=3,71=3/23(-8);
 2/15=1,29=1/2;
 6/7=2,8=2,9=2,10=2,19=2,28=1/1;
 99/5=20,9=1/99;
 ----------
 IRC_3_TBAB
 ----------
 Symbolic Z-matrix:
 Charge =  0 Multiplicity = 1
 Li                   -1   -0.65617  -5.03839  -3.45744 
 N                    -1   -0.28279  -3.67558  -2.19468 
 C                    0    -0.98482  -4.04377  -1.08427 
 Cl                   0    -1.77739  -5.58952  -1.09196 
 N                    -1    2.32823   2.59905  -2.41943 
 C                    0     3.2468    1.60552  -2.35555 
 Cl                   0     4.80923   1.74083  -3.08593 
 N                    -1   -3.32748   2.07508   1.06573 
 C                    0    -3.50554   1.99311  -0.27366 
 Cl                   0    -4.87021   2.68663  -1.07603 
 Zn                   0     0.14804  -0.08531   0.02905 
 N                    0    -0.18927  -2.03258  -0.67931 
 C                    0    -0.93604  -3.04885  -0.15216 
 Cl                   0    -1.64307  -2.98399   1.40274 
 N                    0    -1.60249   0.93789   0.14699 
 C                    0    -2.46699   1.30334  -0.84501 
 Cl                   0    -2.20016   0.88456  -2.49975 
 N                    0     1.46318   0.84092  -1.28124 
 C                    0     2.73766   0.53542  -1.66176 
 Cl                   0     3.48366  -0.97217  -1.27382 
 C                    0     0.17182  -2.45285  -1.89402 
 H                    0     0.77474  -1.85524  -2.56208 
 C                    0    -2.18702   1.43185   1.26855 
 H                    0    -1.74437   1.29526   2.24602 
 C                    0     1.28135   2.08926  -1.77565 
 H                    0     0.33879   2.60872  -1.66354 
 C                    0     2.16662   0.5029    2.20761 
 C                    0     1.21346   1.45008   2.76996 
 O                    0     0.9341   -0.10279   1.85566 
 C                    0     3.01928  -0.31114   3.14446 
 H                    0     0.73748   2.17734   2.13342 
 H                    0     0.76253   1.22695   3.72446 
 H                    0     3.47112  -1.15075   2.61004 
 H                    0     2.40905  -0.70497   3.96091 
 H                    0     3.80968   0.31519   3.56497 
 H                    0     2.73205   0.8798    1.35043 
 N                    0     3.20371   5.64917   0.37963 
 C                    0     1.91702   4.82829   0.49478 
 H                    0     2.01074   4.28138   1.43639 
 H                    0     1.95311   4.11959  -0.33326 
 C                    0     2.99019   6.77484  -0.60353 
 H                    0     2.18927   7.39407  -0.20344 
 H                    0     2.61708   6.30022  -1.51465 
 C                    0     4.29757   4.739    -0.16583 
 H                    0     5.22002   5.31821  -0.10374 
 H                    0     4.05698   4.57356  -1.219 
 C                    0     3.66433   6.14393   1.73824 
 H                    0     4.61219   6.6575    1.5672 
 H                    0     3.85279   5.24926   2.33133 
 Br                   0     2.5005    3.3709    3.86471 
 C                    0     2.71319   7.02663   2.52911 
 C                    0     3.38703   7.45192   3.83685 
 H                    0     1.81405   6.46149   2.78409 
 H                    0     2.41187   7.91726   1.96493 
 C                    0     2.48317   8.33377   4.69225 
 H                    0     3.65501   6.54926   4.39647 
 H                    0     4.32237   7.98251   3.61739 
 H                    0     2.98043   8.62228   5.62162 
 H                    0     2.20402   9.25156   4.16444 
 H                    0     1.56246   7.8068    4.95839 
 C                    0     4.47745   3.39748   0.54135 
 C                    0     5.90744   2.8852    0.34759 
 H                    0     3.77625   2.67279   0.11962 
 H                    0     4.25716   3.45384   1.61085 
 C                    0     6.09895   1.48656   0.92472 
 H                    0     6.15647   2.87664  -0.7192 
 H                    0     6.6049    3.58252   0.82958 
 H                    0     7.13356   1.15187   0.81226 
 H                    0     5.85124   1.46364   1.99046 
 H                    0     5.45855   0.76153   0.414 
 C                    0     0.58941   5.58372   0.44675 
 C                    0    -0.54028   4.66812   0.93057 
 H                    0     0.37019   5.91537  -0.57375 
 H                    0     0.60024   6.4765    1.07577 
 C                    0    -1.91245   5.32821   0.84562 
 H                    0    -0.54899   3.74374   0.34161 
 H                    0    -0.33399   4.37413   1.96647 
 H                    0    -2.68694   4.63765   1.18546 
 H                    0    -1.95541   6.23155   1.46343 
 H                    0    -2.15012   5.61461  -0.18387 
 C                    0     4.19611   7.64879  -0.92322 
 C                    0     3.79754   8.75391  -1.90584 
 H                    0     5.00414   7.05944  -1.3657 
 H                    0     4.59382   8.11157  -0.01406 
 C                    0     4.97025   9.65938  -2.26909 
 H                    0     3.3877    8.29991  -2.81561 
 H                    0     2.98954   9.35426  -1.47096 
 H                    0     4.66306   10.43935  -2.96983 
 H                    0     5.38067   10.15152  -1.382 
 H                    0     5.77869   9.0904   -2.73801 
 
 IRC-IRC-IRC-IRC-IRC-IRC-IRC-IRC-IRC-IRC-IRC-IRC-IRC-IRC-IRC-IRC-IRC-IRC
 ------------------------------------------------------------------------
 INPUT DATA FOR L123
 ------------------------------------------------------------------------
 GENERAL PARAMETERS:
 Follow reaction path in both directions.
 Maximum points per path      = 120
 Step size                    =   0.100 bohr
 Integration scheme           = HPC                                 
    Redo corrector integration= Yes                                 
    DWI Weight Power          =  2
    DWI will use Hessian update vectors when possible.
    Max correction cycles     =  20
 Initial Hessian              = CalcFC
 Hessian evaluation           = Analytic every   3 predictor steps
                              = Update at all corrector steps
 Hessian updating method      = Bofill                              
 ------------------------------------------------------------------------
 IRC-IRC-IRC-IRC-IRC-IRC-IRC-IRC-IRC-IRC-IRC-IRC-IRC-IRC-IRC-IRC-IRC-IRC
 Symmetry turned off by external request.
 Stoichiometry    C28H45BrCl6LiN7OZn
 Framework group  C1[X(C28H45BrCl6LiN7OZn)]
 Deg. of freedom   264
 Full point group                 C1      NOp   1
                          Input orientation:                          
 ---------------------------------------------------------------------
 Center     Atomic      Atomic             Coordinates (Angstroms)
 Number     Number       Type             X           Y           Z
 ---------------------------------------------------------------------
      1          3           0       -0.656174   -5.038394   -3.457440
      2          7           0       -0.282792   -3.675582   -2.194684
      3          6           0       -0.984818   -4.043768   -1.084274
      4         17           0       -1.777385   -5.589521   -1.091964
      5          7           0        2.328228    2.599049   -2.419433
      6          6           0        3.246801    1.605517   -2.355554
      7         17           0        4.809227    1.740826   -3.085925
      8          7           0       -3.327483    2.075083    1.065729
      9          6           0       -3.505537    1.993107   -0.273662
     10         17           0       -4.870206    2.686625   -1.076026
     11         30           0        0.148043   -0.085307    0.029045
     12          7           0       -0.189269   -2.032583   -0.679311
     13          6           0       -0.936037   -3.048854   -0.152161
     14         17           0       -1.643066   -2.983992    1.402738
     15          7           0       -1.602492    0.937892    0.146986
     16          6           0       -2.466987    1.303337   -0.845014
     17         17           0       -2.200159    0.884555   -2.499754
     18          7           0        1.463183    0.840921   -1.281242
     19          6           0        2.737661    0.535420   -1.661757
     20         17           0        3.483663   -0.972174   -1.273822
     21          6           0        0.171816   -2.452853   -1.894016
     22          1           0        0.774736   -1.855237   -2.562080
     23          6           0       -2.187018    1.431849    1.268553
     24          1           0       -1.744371    1.295261    2.246022
     25          6           0        1.281348    2.089256   -1.775648
     26          1           0        0.338785    2.608723   -1.663544
     27          6           0        2.166619    0.502903    2.207609
     28          6           0        1.213462    1.450079    2.769956
     29          8           0        0.934103   -0.102794    1.855656
     30          6           0        3.019278   -0.311139    3.144463
     31          1           0        0.737481    2.177344    2.133425
     32          1           0        0.762531    1.226945    3.724459
     33          1           0        3.471118   -1.150753    2.610036
     34          1           0        2.409050   -0.704972    3.960909
     35          1           0        3.809681    0.315190    3.564969
     36          1           0        2.732052    0.879797    1.350428
     37          7           0        3.203707    5.649170    0.379630
     38          6           0        1.917021    4.828293    0.494775
     39          1           0        2.010739    4.281378    1.436391
     40          1           0        1.953107    4.119590   -0.333259
     41          6           0        2.990187    6.774835   -0.603526
     42          1           0        2.189269    7.394072   -0.203442
     43          1           0        2.617075    6.300220   -1.514646
     44          6           0        4.297565    4.738996   -0.165827
     45          1           0        5.220016    5.318210   -0.103743
     46          1           0        4.056981    4.573564   -1.218997
     47          6           0        3.664327    6.143925    1.738236
     48          1           0        4.612191    6.657504    1.567195
     49          1           0        3.852791    5.249257    2.331328
     50         35           0        2.500498    3.370899    3.864713
     51          6           0        2.713193    7.026629    2.529113
     52          6           0        3.387030    7.451924    3.836850
     53          1           0        1.814050    6.461494    2.784093
     54          1           0        2.411870    7.917260    1.964927
     55          6           0        2.483174    8.333773    4.692252
     56          1           0        3.655005    6.549259    4.396467
     57          1           0        4.322372    7.982510    3.617389
     58          1           0        2.980430    8.622278    5.621619
     59          1           0        2.204017    9.251558    4.164445
     60          1           0        1.562458    7.806801    4.958385
     61          6           0        4.477454    3.397478    0.541354
     62          6           0        5.907440    2.885195    0.347587
     63          1           0        3.776253    2.672785    0.119619
     64          1           0        4.257156    3.453835    1.610849
     65          6           0        6.098951    1.486564    0.924721
     66          1           0        6.156470    2.876638   -0.719204
     67          1           0        6.604903    3.582522    0.829583
     68          1           0        7.133560    1.151870    0.812257
     69          1           0        5.851243    1.463636    1.990457
     70          1           0        5.458549    0.761525    0.413997
     71          6           0        0.589413    5.583723    0.446754
     72          6           0       -0.540283    4.668116    0.930569
     73          1           0        0.370189    5.915373   -0.573748
     74          1           0        0.600236    6.476503    1.075770
     75          6           0       -1.912446    5.328211    0.845623
     76          1           0       -0.548990    3.743739    0.341611
     77          1           0       -0.333987    4.374126    1.966470
     78          1           0       -2.686935    4.637646    1.185455
     79          1           0       -1.955411    6.231546    1.463430
     80          1           0       -2.150120    5.614610   -0.183865
     81          6           0        4.196107    7.648792   -0.923224
     82          6           0        3.797544    8.753907   -1.905838
     83          1           0        5.004140    7.059440   -1.365697
     84          1           0        4.593820    8.111570   -0.014058
     85          6           0        4.970249    9.659381   -2.269085
     86          1           0        3.387696    8.299908   -2.815605
     87          1           0        2.989541    9.354265   -1.470962
     88          1           0        4.663057   10.439350   -2.969825
     89          1           0        5.380673   10.151516   -1.381996
     90          1           0        5.778689    9.090398   -2.738008
 ---------------------------------------------------------------------
 Rotational constants (GHZ):           0.0649007           0.0308862           0.0287619
 General basis read from cards:  (5D, 7F)
 ======================================================================================================
                                       Pseudopotential Parameters
 ======================================================================================================
  Center     Atomic      Valence      Angular      Power
  Number     Number     Electrons     Momentum     of R      Exponent        Coefficient   SO-Coeffient
 ======================================================================================================
    1          3
                                   No pseudopotential on this center.
    2          7
                                   No pseudopotential on this center.
    3          6
                                   No pseudopotential on this center.
    4         17
                                   No pseudopotential on this center.
    5          7
                                   No pseudopotential on this center.
    6          6
                                   No pseudopotential on this center.
    7         17
                                   No pseudopotential on this center.
    8          7
                                   No pseudopotential on this center.
    9          6
                                   No pseudopotential on this center.
   10         17
                                   No pseudopotential on this center.
   11         30           12
                                      F and up 
                                                     1      386.7379660      -18.00000000    0.00000000
                                                     2       72.8587359     -124.35274030    0.00000000
                                                     2       15.9066170      -30.66018220    0.00000000
                                                     2        4.3502340      -10.63589890    0.00000000
                                                     2        1.2842199       -0.76836230    0.00000000
                                      S - F
                                                     0       19.0867858        3.00000000    0.00000000
                                                     1        5.0231080       22.52342250    0.00000000
                                                     2        1.2701744       48.44659420    0.00000000
                                                     2        1.0671287      -44.55601190    0.00000000
                                                     2        0.9264190       12.99839580    0.00000000
                                      P - F
                                                     0       43.4927750        5.00000000    0.00000000
                                                     1       20.8692669       20.74355890    0.00000000
                                                     2       21.7118378       90.30271580    0.00000000
                                                     2        6.3616915       74.66103160    0.00000000
                                                     2        1.2291195        9.88944240    0.00000000
                                      D - F
                                                     2       13.5851800       -4.84903590    0.00000000
                                                     2        9.8373050        3.69133790    0.00000000
                                                     2        0.8373113       -0.50373190    0.00000000
   12          7
                                   No pseudopotential on this center.
   13          6
                                   No pseudopotential on this center.
   14         17
                                   No pseudopotential on this center.
   15          7
                                   No pseudopotential on this center.
   16          6
                                   No pseudopotential on this center.
   17         17
                                   No pseudopotential on this center.
   18          7
                                   No pseudopotential on this center.
   19          6
                                   No pseudopotential on this center.
   20         17
                                   No pseudopotential on this center.
   21          6
                                   No pseudopotential on this center.
   22          1
                                   No pseudopotential on this center.
   23          6
                                   No pseudopotential on this center.
   24          1
                                   No pseudopotential on this center.
   25          6
                                   No pseudopotential on this center.
   26          1
                                   No pseudopotential on this center.
   27          6
                                   No pseudopotential on this center.
   28          6
                                   No pseudopotential on this center.
   29          8
                                   No pseudopotential on this center.
   30          6
                                   No pseudopotential on this center.
   31          1
                                   No pseudopotential on this center.
   32          1
                                   No pseudopotential on this center.
   33          1
                                   No pseudopotential on this center.
   34          1
                                   No pseudopotential on this center.
   35          1
                                   No pseudopotential on this center.
   36          1
                                   No pseudopotential on this center.
   37          7
                                   No pseudopotential on this center.
   38          6
                                   No pseudopotential on this center.
   39          1
                                   No pseudopotential on this center.
   40          1
                                   No pseudopotential on this center.
   41          6
                                   No pseudopotential on this center.
   42          1
                                   No pseudopotential on this center.
   43          1
                                   No pseudopotential on this center.
   44          6
                                   No pseudopotential on this center.
   45          1
                                   No pseudopotential on this center.
   46          1
                                   No pseudopotential on this center.
   47          6
                                   No pseudopotential on this center.
   48          1
                                   No pseudopotential on this center.
   49          1
                                   No pseudopotential on this center.
   50         35
                                   No pseudopotential on this center.
   51          6
                                   No pseudopotential on this center.
   52          6
                                   No pseudopotential on this center.
   53          1
                                   No pseudopotential on this center.
   54          1
                                   No pseudopotential on this center.
   55          6
                                   No pseudopotential on this center.
   56          1
                                   No pseudopotential on this center.
   57          1
                                   No pseudopotential on this center.
   58          1
                                   No pseudopotential on this center.
   59          1
                                   No pseudopotential on this center.
   60          1
                                   No pseudopotential on this center.
   61          6
                                   No pseudopotential on this center.
   62          6
                                   No pseudopotential on this center.
   63          1
                                   No pseudopotential on this center.
   64          1
                                   No pseudopotential on this center.
   65          6
                                   No pseudopotential on this center.
   66          1
                                   No pseudopotential on this center.
   67          1
                                   No pseudopotential on this center.
   68          1
                                   No pseudopotential on this center.
   69          1
                                   No pseudopotential on this center.
   70          1
                                   No pseudopotential on this center.
   71          6
                                   No pseudopotential on this center.
   72          6
                                   No pseudopotential on this center.
   73          1
                                   No pseudopotential on this center.
   74          1
                                   No pseudopotential on this center.
   75          6
                                   No pseudopotential on this center.
   76          1
                                   No pseudopotential on this center.
   77          1
                                   No pseudopotential on this center.
   78          1
                                   No pseudopotential on this center.
   79          1
                                   No pseudopotential on this center.
   80          1
                                   No pseudopotential on this center.
   81          6
                                   No pseudopotential on this center.
   82          6
                                   No pseudopotential on this center.
   83          1
                                   No pseudopotential on this center.
   84          1
                                   No pseudopotential on this center.
   85          6
                                   No pseudopotential on this center.
   86          1
                                   No pseudopotential on this center.
   87          1
                                   No pseudopotential on this center.
   88          1
                                   No pseudopotential on this center.
   89          1
                                   No pseudopotential on this center.
   90          1
                                   No pseudopotential on this center.
 ======================================================================================================
   897 basis functions,  1785 primitive gaussians,   944 cartesian basis functions
   211 alpha electrons      211 beta electrons
       nuclear repulsion energy      8613.9823847456 Hartrees.
 NAtoms=   90 NActive=   90 NUniq=   90 SFac= 1.00D+00 NAtFMM=   60 NAOKFM=T Big=T
 Integral buffers will be    131072 words long.
 Raffenetti 2 integral format.
 Two-electron integral symmetry is turned off.
 One-electron integrals computed using PRISM.
   1 Symmetry operations used in ECPInt.
 ECPInt:  NShTT=   54946 NPrTT=  301763 LenC2=   38814 LenP2D=  109824.
 LDataN:  DoStor=T MaxTD1= 5 Len=  102
 NBasis=   897 RedAO= T EigKep=  1.36D-03  NBF=   897
 NBsUse=   897 1.00D-06 EigRej= -1.00D+00 NBFU=   897
 ExpMin= 3.51D-02 ExpMax= 5.74D+05 ExpMxC= 5.74D+03 IAcc=3 IRadAn=         5 AccDes= 0.00D+00
 Harris functional with IExCor=20419 and IRadAn=       5 diagonalized for initial guess.
 HarFok:  IExCor=20419 AccDes= 0.00D+00 IRadAn=         5 IDoV= 1 UseB2=F ITyADJ=14
 ICtDFT=  3500011 ScaDFX=  1.000000  1.000000  1.000000  1.000000
 FoFCou: FMM=F IPFlag=           0 FMFlag=      100000 FMFlg1=        2001
         NFxFlg=           0 DoJE=T BraDBF=F KetDBF=T FulRan=T
         wScrn=  0.000000 ICntrl=       500 IOpCl=  0 I1Cent=   200000004 NGrid=           0
         NMat0=    1 NMatS0=      1 NMatT0=    0 NMatD0=    1 NMtDS0=    0 NMtDT0=    0
 Symmetry not used in FoFCou.
 Gradient too large for Newton-Raphson -- use scaled steepest descent instead.
     Accept linear search using points  3 and  4.
 Gradient too large for Newton-Raphson -- use scaled steepest descent instead.
     Accept linear search using points  2 and  3.
 Gradient too large for Newton-Raphson -- use scaled steepest descent instead.
 Gradient too large for Newton-Raphson -- use scaled steepest descent instead.
     Accept linear search using points  1 and  2.
 Gradient too large for Newton-Raphson -- use scaled steepest descent instead.
     Accept linear search using points  2 and  3.
 Gradient too large for Newton-Raphson -- use scaled steepest descent instead.
     Accept linear search using points  1 and  2.
 LinEq1:  Iter=  0 NonCon=     1 RMS=2.57D-05 Max=3.86D-03 NDo=     1
 AX will form     1 AO Fock derivatives at one time.
 LinEq1:  Iter=  1 NonCon=     1 RMS=9.32D-06 Max=7.06D-04 NDo=     1
 LinEq1:  Iter=  2 NonCon=     1 RMS=4.21D-06 Max=4.95D-04 NDo=     1
 LinEq1:  Iter=  3 NonCon=     1 RMS=1.85D-06 Max=1.89D-04 NDo=     1
 LinEq1:  Iter=  4 NonCon=     1 RMS=8.09D-07 Max=8.53D-05 NDo=     1
 LinEq1:  Iter=  5 NonCon=     1 RMS=5.05D-07 Max=4.16D-05 NDo=     1
 LinEq1:  Iter=  6 NonCon=     1 RMS=2.71D-07 Max=1.60D-05 NDo=     1
 LinEq1:  Iter=  7 NonCon=     1 RMS=1.28D-07 Max=8.96D-06 NDo=     1
 LinEq1:  Iter=  8 NonCon=     1 RMS=6.78D-08 Max=3.53D-06 NDo=     1
 LinEq1:  Iter=  9 NonCon=     1 RMS=2.61D-08 Max=1.58D-06 NDo=     1
 LinEq1:  Iter= 10 NonCon=     1 RMS=1.68D-08 Max=1.69D-06 NDo=     1
 LinEq1:  Iter= 11 NonCon=     0 RMS=8.22D-09 Max=5.00D-07 NDo=     1
 Linear equations converged to 5.380D-08 5.380D-07 after    11 iterations.
     Minimum is close to point  2 DX=  9.60D-05 DF= -9.09D-13 DXR=  9.60D-05 DFR=  8.15D-09 which will be used.
 LinEq1:  Iter=  0 NonCon=     1 RMS=7.78D-08 Max=1.18D-05 NDo=     1
 LinEq1:  Iter=  1 NonCon=     1 RMS=3.82D-08 Max=3.72D-06 NDo=     1
 LinEq1:  Iter=  2 NonCon=     1 RMS=2.73D-08 Max=2.99D-06 NDo=     1
 LinEq1:  Iter=  3 NonCon=     1 RMS=1.19D-08 Max=1.34D-06 NDo=     1
 LinEq1:  Iter=  4 NonCon=     1 RMS=5.67D-09 Max=4.33D-07 NDo=     1
 LinEq1:  Iter=  5 NonCon=     1 RMS=3.76D-09 Max=3.04D-07 NDo=     1
 LinEq1:  Iter=  6 NonCon=     1 RMS=1.63D-09 Max=1.09D-07 NDo=     1
 LinEq1:  Iter=  7 NonCon=     1 RMS=9.91D-10 Max=1.02D-07 NDo=     1
 LinEq1:  Iter=  8 NonCon=     1 RMS=4.76D-10 Max=3.56D-08 NDo=     1
 LinEq1:  Iter=  9 NonCon=     1 RMS=2.68D-10 Max=2.73D-08 NDo=     1
 LinEq1:  Iter= 10 NonCon=     1 RMS=1.36D-10 Max=1.25D-08 NDo=     1
 LinEq1:  Iter= 11 NonCon=     1 RMS=8.39D-11 Max=5.25D-09 NDo=     1
 LinEq1:  Iter= 12 NonCon=     0 RMS=3.34D-11 Max=1.52D-09 NDo=     1
 Linear equations converged to 2.696D-10 2.696D-09 after    12 iterations.
 Restarting incremental Fock formation.
 SCF Done:  E(RCAM-B3LYP) =  -6957.55099245     a.u. after    9 cycles
            Convg  =    0.2550D-08                    44 Fock formations.
              S**2 =  0.0000                  -V/T =  1.9952
 DoSCS=F DFT=T ScalE2(SS,OS)=  1.000000  1.000000
 Range of M.O.s used for correlation:     1   897
 NBasis=   897 NAE=   211 NBE=   211 NFC=     0 NFV=     0
 NROrb=    897 NOA=   211 NOB=   211 NVA=   686 NVB=   686
   1 Symmetry operations used in ECPInt.
 ECPInt:  NShTT=   54946 NPrTT=  301763 LenC2=   38814 LenP2D=  109824.
 LDataN:  DoStor=T MaxTD1= 6 Len=  172
 Number of processors reduced to   8 by ecpmxn.
 Symmetrizing basis deriv contribution to polar:
 IMax=3 JMax=2 DiffMx= 0.00D+00
 G2DrvN: will do    91 centers at a time, making    1 passes.
 Calling FoFCou, ICntrl=  3107 FMM=T I1Cent=   0 AccDes= 0.00D+00.
 End of G2Drv F.D. properties file   721 does not exist.
 End of G2Drv F.D. properties file   722 does not exist.
 End of G2Drv F.D. properties file   788 does not exist.
          IDoAtm=00110110111111111111111111111111111111111111111111
          IDoAtm=1111111111111111111111111111111111111111
          Differentiating once with respect to nuclear coordinates.
 CalDSu exits because no D1Ps are significant.
          There are   261 degrees of freedom in the 1st order CPHF.  IDoFFX=6 NUNeed=     0.
    258 vectors produced by pass  0 Test12= 1.45D-13 1.00D-09 XBig12= 1.18D-01 8.65D-02.
 AX will form    96 AO Fock derivatives at one time.
    258 vectors produced by pass  1 Test12= 1.45D-13 1.00D-09 XBig12= 1.76D-02 2.82D-02.
    258 vectors produced by pass  2 Test12= 1.45D-13 1.00D-09 XBig12= 5.47D-04 3.46D-03.
    258 vectors produced by pass  3 Test12= 1.45D-13 1.00D-09 XBig12= 1.01D-05 7.53D-04.
    258 vectors produced by pass  4 Test12= 1.45D-13 1.00D-09 XBig12= 1.13D-07 7.37D-05.
    258 vectors produced by pass  5 Test12= 1.45D-13 1.00D-09 XBig12= 7.87D-10 3.16D-06.
    133 vectors produced by pass  6 Test12= 1.45D-13 1.00D-09 XBig12= 4.02D-12 2.29D-07.
     39 vectors produced by pass  7 Test12= 1.45D-13 1.00D-09 XBig12= 1.87D-14 1.78D-08.
      1 vectors produced by pass  8 Test12= 1.45D-13 1.00D-09 XBig12= 8.66D-17 1.36D-09.
 InvSVY:  IOpt=1 It=  1 EMax= 6.11D-16
 Solved reduced A of dimension  1721 with   261 vectors.
 End of Minotr F.D. properties file   721 does not exist.
 End of Minotr F.D. properties file   722 does not exist.
 End of Minotr F.D. properties file   788 does not exist.

 **********************************************************************

            Population analysis using the SCF Density.

 **********************************************************************

 Alpha  occ. eigenvalues -- -482.62579-101.65418-101.61400-101.60268-101.58999
 Alpha  occ. eigenvalues -- -101.58504-101.56471 -61.70723 -56.27564 -56.27465
 Alpha  occ. eigenvalues --  -56.27442 -19.19550 -14.53903 -14.43531 -14.43361
 Alpha  occ. eigenvalues --  -14.40582 -14.38836 -14.37588 -14.35143 -10.35061
 Alpha  occ. eigenvalues --  -10.34778 -10.32950 -10.32938 -10.31797 -10.31437
 Alpha  occ. eigenvalues --  -10.31424 -10.31260 -10.30636 -10.30293 -10.29838
 Alpha  occ. eigenvalues --  -10.29387 -10.28868 -10.28605 -10.28396 -10.27874
 Alpha  occ. eigenvalues --  -10.26974 -10.26640 -10.26355 -10.26277 -10.25799
 Alpha  occ. eigenvalues --  -10.25527 -10.25090 -10.24472 -10.24371 -10.23417
 Alpha  occ. eigenvalues --  -10.22806 -10.22181  -9.58631  -9.54584  -9.53421
 Alpha  occ. eigenvalues --   -9.52221  -9.51677  -9.49731  -8.48776  -7.35021
 Alpha  occ. eigenvalues --   -7.34143  -7.34019  -7.31066  -7.29993  -7.29987
 Alpha  occ. eigenvalues --   -7.29858  -7.28863  -7.28855  -7.28650  -7.28108
 Alpha  occ. eigenvalues --   -7.27667  -7.27645  -7.27121  -7.27110  -7.26163
 Alpha  occ. eigenvalues --   -7.25169  -7.25152  -6.49936  -6.49602  -6.49574
 Alpha  occ. eigenvalues --   -2.62189  -2.62106  -2.62083  -2.61820  -2.61820
 Alpha  occ. eigenvalues --   -2.15579  -1.12262  -1.10564  -1.07954  -1.07407
 Alpha  occ. eigenvalues --   -1.05900  -1.00000  -0.97370  -0.95182  -0.93886
 Alpha  occ. eigenvalues --   -0.93198  -0.92534  -0.91841  -0.91692  -0.90309
 Alpha  occ. eigenvalues --   -0.89586  -0.88734  -0.88066  -0.86630  -0.84371
 Alpha  occ. eigenvalues --   -0.82945  -0.82160  -0.81863  -0.81120  -0.78933
 Alpha  occ. eigenvalues --   -0.76967  -0.76596  -0.75519  -0.74932  -0.73399
 Alpha  occ. eigenvalues --   -0.73133  -0.71110  -0.69045  -0.69004  -0.67460
 Alpha  occ. eigenvalues --   -0.67049  -0.67014  -0.66764  -0.66509  -0.66078
 Alpha  occ. eigenvalues --   -0.65944  -0.65753  -0.65412  -0.65274  -0.63959
 Alpha  occ. eigenvalues --   -0.63883  -0.62166  -0.61496  -0.60378  -0.60308
 Alpha  occ. eigenvalues --   -0.60242  -0.59560  -0.58166  -0.57388  -0.56909
 Alpha  occ. eigenvalues --   -0.55681  -0.55300  -0.54928  -0.54264  -0.53975
 Alpha  occ. eigenvalues --   -0.53909  -0.52518  -0.51576  -0.51383  -0.50792
 Alpha  occ. eigenvalues --   -0.50568  -0.50459  -0.49935  -0.49258  -0.49158
 Alpha  occ. eigenvalues --   -0.49058  -0.48902  -0.48686  -0.48470  -0.48176
 Alpha  occ. eigenvalues --   -0.47897  -0.47268  -0.46736  -0.46457  -0.46195
 Alpha  occ. eigenvalues --   -0.45973  -0.45672  -0.45089  -0.44811  -0.44625
 Alpha  occ. eigenvalues --   -0.44370  -0.44325  -0.43959  -0.43880  -0.43438
 Alpha  occ. eigenvalues --   -0.42786  -0.42632  -0.42309  -0.42194  -0.42140
 Alpha  occ. eigenvalues --   -0.42054  -0.41558  -0.41278  -0.41195  -0.40530
 Alpha  occ. eigenvalues --   -0.40381  -0.40277  -0.40123  -0.40008  -0.39822
 Alpha  occ. eigenvalues --   -0.39558  -0.39390  -0.39078  -0.38794  -0.38501
 Alpha  occ. eigenvalues --   -0.38452  -0.38284  -0.38191  -0.37915  -0.37015
 Alpha  occ. eigenvalues --   -0.36582  -0.36133  -0.35864  -0.34936  -0.33871
 Alpha  occ. eigenvalues --   -0.32986  -0.32276  -0.30874  -0.30092  -0.28981
 Alpha  occ. eigenvalues --   -0.28775  -0.26527  -0.26486  -0.25858  -0.25293
 Alpha  occ. eigenvalues --   -0.23229
 Alpha virt. eigenvalues --   -0.05495   0.00380   0.01109   0.04508   0.05387
 Alpha virt. eigenvalues --    0.05852   0.06465   0.08422   0.09430   0.09599
 Alpha virt. eigenvalues --    0.09863   0.09955   0.10477   0.10802   0.11266
 Alpha virt. eigenvalues --    0.11527   0.11912   0.12167   0.12342   0.12686
 Alpha virt. eigenvalues --    0.12956   0.13065   0.13241   0.13538   0.13808
 Alpha virt. eigenvalues --    0.14108   0.14448   0.14644   0.14939   0.15347
 Alpha virt. eigenvalues --    0.15433   0.15637   0.15857   0.16044   0.16998
 Alpha virt. eigenvalues --    0.17569   0.17860   0.17937   0.18639   0.18754
 Alpha virt. eigenvalues --    0.19142   0.19472   0.19739   0.19998   0.20203
 Alpha virt. eigenvalues --    0.20437   0.20816   0.21060   0.21549   0.21755
 Alpha virt. eigenvalues --    0.21804   0.22021   0.22279   0.22632   0.22896
 Alpha virt. eigenvalues --    0.23465   0.23642   0.23841   0.24160   0.24342
 Alpha virt. eigenvalues --    0.24430   0.24729   0.25223   0.25439   0.25587
 Alpha virt. eigenvalues --    0.26026   0.26262   0.26579   0.26881   0.27229
 Alpha virt. eigenvalues --    0.27307   0.27546   0.27823   0.28478   0.28927
 Alpha virt. eigenvalues --    0.29112   0.29300   0.29717   0.30085   0.30505
 Alpha virt. eigenvalues --    0.30906   0.31122   0.31414   0.31706   0.31933
 Alpha virt. eigenvalues --    0.32398   0.32651   0.32835   0.33086   0.33438
 Alpha virt. eigenvalues --    0.33875   0.34385   0.34592   0.35391   0.35509
 Alpha virt. eigenvalues --    0.36189   0.36300   0.37248   0.38083   0.38345
 Alpha virt. eigenvalues --    0.40174   0.40774   0.41326   0.41736   0.41874
 Alpha virt. eigenvalues --    0.42467   0.43834   0.43859   0.44657   0.45651
 Alpha virt. eigenvalues --    0.46726   0.47201   0.47558   0.47677   0.49209
 Alpha virt. eigenvalues --    0.49324   0.49612   0.50138   0.50605   0.51096
 Alpha virt. eigenvalues --    0.51653   0.51704   0.52098   0.52227   0.52960
 Alpha virt. eigenvalues --    0.53036   0.53323   0.53564   0.54070   0.54457
 Alpha virt. eigenvalues --    0.54927   0.55551   0.55870   0.56183   0.56464
 Alpha virt. eigenvalues --    0.56842   0.57118   0.57477   0.57752   0.58099
 Alpha virt. eigenvalues --    0.58470   0.58834   0.59584   0.59701   0.60171
 Alpha virt. eigenvalues --    0.60486   0.61043   0.61383   0.61590   0.61835
 Alpha virt. eigenvalues --    0.61874   0.62243   0.62329   0.62503   0.62789
 Alpha virt. eigenvalues --    0.63345   0.63639   0.63764   0.64399   0.64938
 Alpha virt. eigenvalues --    0.65080   0.65841   0.66007   0.66204   0.66665
 Alpha virt. eigenvalues --    0.66935   0.67313   0.67567   0.67892   0.68425
 Alpha virt. eigenvalues --    0.68785   0.69262   0.69449   0.69655   0.69699
 Alpha virt. eigenvalues --    0.70193   0.70390   0.70707   0.71065   0.71455
 Alpha virt. eigenvalues --    0.71602   0.72080   0.72558   0.72630   0.73562
 Alpha virt. eigenvalues --    0.73862   0.74088   0.74303   0.74806   0.74902
 Alpha virt. eigenvalues --    0.75368   0.75878   0.76390   0.76429   0.77317
 Alpha virt. eigenvalues --    0.77517   0.77986   0.78530   0.78695   0.79093
 Alpha virt. eigenvalues --    0.79433   0.79996   0.80198   0.81274   0.81838
 Alpha virt. eigenvalues --    0.82165   0.82473   0.83169   0.83756   0.84306
 Alpha virt. eigenvalues --    0.84680   0.84919   0.85238   0.85869   0.86402
 Alpha virt. eigenvalues --    0.86463   0.87244   0.87510   0.88120   0.88234
 Alpha virt. eigenvalues --    0.88597   0.89055   0.89138   0.89542   0.89897
 Alpha virt. eigenvalues --    0.90003   0.90318   0.90505   0.90941   0.91301
 Alpha virt. eigenvalues --    0.91427   0.91740   0.92034   0.92227   0.92565
 Alpha virt. eigenvalues --    0.92768   0.92836   0.93021   0.93199   0.93692
 Alpha virt. eigenvalues --    0.93796   0.93810   0.93918   0.94293   0.94580
 Alpha virt. eigenvalues --    0.94749   0.95226   0.95376   0.95613   0.95827
 Alpha virt. eigenvalues --    0.95909   0.96054   0.96387   0.96587   0.97071
 Alpha virt. eigenvalues --    0.97127   0.97420   0.97864   0.97924   0.98075
 Alpha virt. eigenvalues --    0.98267   0.98545   0.99029   0.99099   0.99516
 Alpha virt. eigenvalues --    0.99871   1.00338   1.00488   1.00638   1.00922
 Alpha virt. eigenvalues --    1.01326   1.01639   1.01813   1.01926   1.02369
 Alpha virt. eigenvalues --    1.02630   1.03442   1.03696   1.03890   1.04332
 Alpha virt. eigenvalues --    1.04551   1.04828   1.05386   1.05675   1.06099
 Alpha virt. eigenvalues --    1.06554   1.07020   1.07399   1.07839   1.08118
 Alpha virt. eigenvalues --    1.08605   1.08969   1.09054   1.09542   1.09893
 Alpha virt. eigenvalues --    1.10529   1.11419   1.11541   1.11868   1.12008
 Alpha virt. eigenvalues --    1.12721   1.13083   1.13677   1.13830   1.14285
 Alpha virt. eigenvalues --    1.14664   1.15102   1.15494   1.16019   1.16594
 Alpha virt. eigenvalues --    1.17344   1.18015   1.18673   1.18900   1.19610
 Alpha virt. eigenvalues --    1.20038   1.20617   1.21532   1.21574   1.22387
 Alpha virt. eigenvalues --    1.23154   1.23695   1.24042   1.25421   1.26960
 Alpha virt. eigenvalues --    1.28059   1.28462   1.28842   1.30357   1.30939
 Alpha virt. eigenvalues --    1.33429   1.33855   1.34369   1.35260   1.35904
 Alpha virt. eigenvalues --    1.36209   1.36275   1.37007   1.38748   1.39060
 Alpha virt. eigenvalues --    1.39350   1.40087   1.41365   1.41606   1.41725
 Alpha virt. eigenvalues --    1.42288   1.43046   1.44111   1.44315   1.45438
 Alpha virt. eigenvalues --    1.45676   1.46476   1.47106   1.47379   1.48181
 Alpha virt. eigenvalues --    1.48653   1.48829   1.49571   1.49606   1.50006
 Alpha virt. eigenvalues --    1.50426   1.51578   1.52165   1.52751   1.53466
 Alpha virt. eigenvalues --    1.54247   1.55506   1.56378   1.56770   1.58650
 Alpha virt. eigenvalues --    1.59193   1.60810   1.61468   1.61741   1.62676
 Alpha virt. eigenvalues --    1.63090   1.63479   1.63672   1.64358   1.65656
 Alpha virt. eigenvalues --    1.65975   1.66677   1.67377   1.67857   1.68577
 Alpha virt. eigenvalues --    1.68917   1.69378   1.69598   1.70630   1.70983
 Alpha virt. eigenvalues --    1.71149   1.71723   1.72351   1.72855   1.73876
 Alpha virt. eigenvalues --    1.74251   1.74537   1.75007   1.75808   1.76015
 Alpha virt. eigenvalues --    1.76802   1.77045   1.77462   1.77953   1.78527
 Alpha virt. eigenvalues --    1.79210   1.79505   1.79930   1.81106   1.81946
 Alpha virt. eigenvalues --    1.85459   1.85619   1.87531   1.88226   1.88895
 Alpha virt. eigenvalues --    1.89767   1.90786   1.91376   1.92072   1.92812
 Alpha virt. eigenvalues --    1.93387   1.93622   1.93756   1.95067   1.95362
 Alpha virt. eigenvalues --    1.95458   1.95541   1.96289   1.97021   1.97387
 Alpha virt. eigenvalues --    1.98487   1.98891   1.99136   1.99737   2.00209
 Alpha virt. eigenvalues --    2.00624   2.01218   2.01308   2.01928   2.02783
 Alpha virt. eigenvalues --    2.03405   2.03645   2.04419   2.05448   2.06119
 Alpha virt. eigenvalues --    2.06368   2.07557   2.08692   2.09559   2.10579
 Alpha virt. eigenvalues --    2.10767   2.11553   2.11897   2.12405   2.12538
 Alpha virt. eigenvalues --    2.13310   2.13663   2.13718   2.13914   2.14169
 Alpha virt. eigenvalues --    2.14558   2.14789   2.15019   2.15291   2.15496
 Alpha virt. eigenvalues --    2.15648   2.16036   2.16768   2.16924   2.17292
 Alpha virt. eigenvalues --    2.18407   2.18704   2.18935   2.19110   2.19273
 Alpha virt. eigenvalues --    2.19697   2.20119   2.20246   2.20463   2.21305
 Alpha virt. eigenvalues --    2.21512   2.22271   2.23921   2.24249   2.25488
 Alpha virt. eigenvalues --    2.25722   2.25851   2.26790   2.27340   2.27549
 Alpha virt. eigenvalues --    2.28118   2.28690   2.29443   2.29577   2.30006
 Alpha virt. eigenvalues --    2.30919   2.31061   2.31232   2.31652   2.32343
 Alpha virt. eigenvalues --    2.32705   2.33653   2.33852   2.33989   2.34621
 Alpha virt. eigenvalues --    2.35066   2.35584   2.35918   2.36438   2.36743
 Alpha virt. eigenvalues --    2.37111   2.37763   2.38090   2.38449   2.38785
 Alpha virt. eigenvalues --    2.39244   2.39429   2.39735   2.40355   2.41375
 Alpha virt. eigenvalues --    2.41708   2.42234   2.42635   2.43235   2.43699
 Alpha virt. eigenvalues --    2.44869   2.45511   2.45823   2.46204   2.47338
 Alpha virt. eigenvalues --    2.48748   2.48813   2.49733   2.50534   2.51057
 Alpha virt. eigenvalues --    2.51310   2.52056   2.52464   2.53715   2.54269
 Alpha virt. eigenvalues --    2.55088   2.55867   2.56409   2.57500   2.58966
 Alpha virt. eigenvalues --    2.61033   2.62036   2.63226   2.63903   2.64219
 Alpha virt. eigenvalues --    2.64500   2.64580   2.65524   2.66687   2.66829
 Alpha virt. eigenvalues --    2.67246   2.67855   2.68393   2.68441   2.69543
 Alpha virt. eigenvalues --    2.70087   2.70471   2.70992   2.71465   2.71526
 Alpha virt. eigenvalues --    2.71858   2.72692   2.73175   2.73622   2.73738
 Alpha virt. eigenvalues --    2.75137   2.75661   2.76174   2.76823   2.77058
 Alpha virt. eigenvalues --    2.77380   2.78261   2.78988   2.79397   2.79958
 Alpha virt. eigenvalues --    2.80798   2.81451   2.82118   2.82604   2.83632
 Alpha virt. eigenvalues --    2.83960   2.84113   2.84771   2.85185   2.85292
 Alpha virt. eigenvalues --    2.85318   2.86214   2.86882   2.87231   2.88583
 Alpha virt. eigenvalues --    2.88977   2.89189   2.90044   2.90899   2.91107
 Alpha virt. eigenvalues --    2.91242   2.91302   2.92291   2.92828   2.92948
 Alpha virt. eigenvalues --    2.93163   2.93965   2.94318   2.94951   2.95008
 Alpha virt. eigenvalues --    2.95445   2.95938   2.96762   2.97390   2.97541
 Alpha virt. eigenvalues --    2.97960   2.98288   2.98824   2.99154   2.99283
 Alpha virt. eigenvalues --    2.99649   2.99786   3.00496   3.00843   3.00902
 Alpha virt. eigenvalues --    3.02155   3.02631   3.03782   3.04291   3.04419
 Alpha virt. eigenvalues --    3.05187   3.05426   3.06651   3.06880   3.09254
 Alpha virt. eigenvalues --    3.13846   3.19801   3.24266   3.24694   3.26384
 Alpha virt. eigenvalues --    3.26412   3.28666   3.30071   3.31292   3.31675
 Alpha virt. eigenvalues --    3.34645   3.36032   3.36548   3.37433   3.38483
 Alpha virt. eigenvalues --    3.38889   3.39829   3.40404   3.41723   3.43621
 Alpha virt. eigenvalues --    3.43715   3.45030   3.45112   3.48501   3.48942
 Alpha virt. eigenvalues --    3.50065   3.52425   3.52610   3.53807   3.54212
 Alpha virt. eigenvalues --    3.55208   3.55894   3.56710   3.57906   3.58917
 Alpha virt. eigenvalues --    3.59154   3.59450   3.59812   3.60913   3.62575
 Alpha virt. eigenvalues --    3.63227   3.63361   3.63551   3.63890   3.65108
 Alpha virt. eigenvalues --    3.65653   3.67622   3.69970   3.70050   8.70550
 Alpha virt. eigenvalues --    9.40646
          Condensed to atoms (all electrons):
 Mulliken charges:
               1
     1  Li   0.606707
     2  N   -0.498963
     3  C    0.058364
     4  Cl   0.051172
     5  N   -0.399600
     6  C   -0.004556
     7  Cl  -0.030092
     8  N   -0.373284
     9  C    0.006570
    10  Cl  -0.032916
    11  Zn   1.033760
    12  N   -0.527301
    13  C    0.056979
    14  Cl   0.061083
    15  N   -0.578958
    16  C    0.034947
    17  Cl  -0.024095
    18  N   -0.556692
    19  C    0.020906
    20  Cl  -0.010267
    21  C    0.231819
    22  H    0.149431
    23  C    0.166481
    24  H    0.102982
    25  C    0.164007
    26  H    0.119307
    27  C    0.211017
    28  C   -0.047265
    29  O   -0.657632
    30  C   -0.320665
    31  H    0.162484
    32  H    0.179527
    33  H    0.112547
    34  H    0.110671
    35  H    0.129129
    36  H    0.094854
    37  N   -0.410879
    38  C   -0.088351
    39  H    0.170848
    40  H    0.156483
    41  C   -0.057117
    42  H    0.142338
    43  H    0.155752
    44  C   -0.078874
    45  H    0.124133
    46  H    0.166267
    47  C   -0.069470
    48  H    0.116915
    49  H    0.177969
    50  Br  -0.609670
    51  C   -0.195324
    52  C   -0.187933
    53  H    0.147514
    54  H    0.089535
    55  C   -0.315509
    56  H    0.136896
    57  H    0.084599
    58  H    0.108407
    59  H    0.094949
    60  H    0.119810
    61  C   -0.213822
    62  C   -0.187125
    63  H    0.131561
    64  H    0.148272
    65  C   -0.323556
    66  H    0.111498
    67  H    0.085794
    68  H    0.099521
    69  H    0.114215
    70  H    0.121708
    71  C   -0.197251
    72  C   -0.204795
    73  H    0.103558
    74  H    0.103725
    75  C   -0.323434
    76  H    0.115306
    77  H    0.122607
    78  H    0.152843
    79  H    0.086551
    80  H    0.097977
    81  C   -0.204611
    82  C   -0.185128
    83  H    0.120993
    84  H    0.113073
    85  C   -0.315248
    86  H    0.110525
    87  H    0.103316
    88  H    0.114184
    89  H    0.106342
    90  H    0.109656
 Sum of Mulliken charges =   0.00000
 Mulliken charges with hydrogens summed into heavy atoms:
               1
     1  Li   0.606707
     2  N   -0.498963
     3  C    0.058364
     4  Cl   0.051172
     5  N   -0.399600
     6  C   -0.004556
     7  Cl  -0.030092
     8  N   -0.373284
     9  C    0.006570
    10  Cl  -0.032916
    11  Zn   1.033760
    12  N   -0.527301
    13  C    0.056979
    14  Cl   0.061083
    15  N   -0.578958
    16  C    0.034947
    17  Cl  -0.024095
    18  N   -0.556692
    19  C    0.020906
    20  Cl  -0.010267
    21  C    0.381251
    23  C    0.269463
    25  C    0.283315
    27  C    0.305870
    28  C    0.294746
    29  O   -0.657632
    30  C    0.031681
    37  N   -0.410879
    38  C    0.238979
    41  C    0.240973
    44  C    0.211526
    47  C    0.225414
    50  Br  -0.609670
    51  C    0.041725
    52  C    0.033562
    55  C    0.007657
    61  C    0.066011
    62  C    0.010167
    65  C    0.011888
    71  C    0.010033
    72  C    0.033119
    75  C    0.013936
    81  C    0.029455
    82  C    0.028713
    85  C    0.014935
 Electronic spatial extent (au):  <R**2>=          47978.6663
 Charge=              0.0000 electrons
 Dipole moment (field-independent basis, Debye):
    X=              6.2814    Y=             -4.5467    Z=             -9.4566  Tot=             12.2293
 Quadrupole moment (field-independent basis, Debye-Ang):
   XX=           -350.8573   YY=           -197.6842   ZZ=           -327.2248
   XY=             54.8867   XZ=              4.4549   YZ=             38.2148
 Traceless Quadrupole moment (field-independent basis, Debye-Ang):
   XX=            -58.9352   YY=             94.2379   ZZ=            -35.3027
   XY=             54.8867   XZ=              4.4549   YZ=             38.2148
 Octapole moment (field-independent basis, Debye-Ang**2):
  XXX=           -996.4142  YYY=          -1732.5984  ZZZ=           -312.6357  XYY=           -100.9235
  XXY=           -605.3804  XXZ=            -31.0072  XZZ=           -495.0696  YZZ=           -966.0339
  YYZ=           -344.5482  XYZ=            -58.3063
 Hexadecapole moment (field-independent basis, Debye-Ang**3):
 XXXX=         -18890.6710 YYYY=         -28710.7780 ZZZZ=          -8487.4686 XXXY=          -5790.6763
 XXXZ=           -569.5780 YYYX=          -4062.7590 YYYZ=           -882.1908 ZZZX=           -756.5754
 ZZZY=          -1541.7611 XXYY=          -7998.1420 XXZZ=          -4844.0536 YYZZ=          -6363.6253
 XXYZ=           -766.9315 YYXZ=           -165.5624 ZZXY=          -2248.6711
 N-N= 8.613982384746D+03 E-N=-3.380483702890D+04  KE= 6.991327260740D+03
  Exact polarizability:   0.000   0.000   0.000   0.000   0.000   0.000
 Approx polarizability: 499.334   6.481 531.325 -18.827  20.722 519.258
   1 Symmetry operations used in ECPInt.
 ECPInt:  NShTT=   54946 NPrTT=  301763 LenC2=   38814 LenP2D=  109824.
 LDataN:  DoStor=T MaxTD1= 7 Len=  274
 Calling FoFJK, ICntrl=    100147 FMM=F ISym2X=0 I1Cent= 0 IOpClX= 0 NMat=1 NMatS=1 NMatT=0.
 -------------------------------------------------------------------
 Center     Atomic                   Forces (Hartrees/Bohr)
 Number     Number              X              Y              Z
 -------------------------------------------------------------------
      1        3          -0.000000000   -0.000000000   -0.000000000
      2        7          -0.000000000   -0.000000000   -0.000000000
      3        6           0.000000034    0.000000063    0.000000168
      4       17          -0.000000075   -0.000000186   -0.000000055
      5        7          -0.000000000   -0.000000000   -0.000000000
      6        6           0.000000163   -0.000000114    0.000000115
      7       17          -0.000000076   -0.000000009    0.000000034
      8        7          -0.000000000   -0.000000000   -0.000000000
      9        6           0.000000539   -0.000000272    0.000000554
     10       17          -0.000000226    0.000000107   -0.000000192
     11       30          -0.000000010    0.000000030   -0.000000075
     12        7          -0.000000198   -0.000000165    0.000000244
     13        6           0.000000223    0.000000407   -0.000000101
     14       17          -0.000000048   -0.000000019    0.000000047
     15        7           0.000000388   -0.000000414   -0.000000434
     16        6          -0.000000435    0.000000306   -0.000000175
     17       17           0.000000062   -0.000000051   -0.000000113
     18        7           0.000000303   -0.000000169   -0.000000170
     19        6          -0.000000471    0.000000452    0.000000004
     20       17           0.000000146   -0.000000260    0.000000056
     21        6           0.000000089    0.000000074    0.000000013
     22        1           0.000000010    0.000000035   -0.000000024
     23        6          -0.000000547    0.000000500    0.000000642
     24        1           0.000000039   -0.000000025   -0.000000003
     25        6           0.000000571    0.000000272   -0.000000257
     26        1          -0.000000173    0.000000048    0.000000073
     27        6          -0.000000332   -0.000000038    0.000000337
     28        6           0.000000134   -0.000000618    0.000000656
     29        8           0.000000296    0.000000043    0.000000116
     30        6          -0.000000597    0.000000422   -0.000000164
     31        1          -0.000000145    0.000000216   -0.000000173
     32        1           0.000000258    0.000000216   -0.000000536
     33        1           0.000000246   -0.000000345   -0.000000163
     34        1          -0.000000002    0.000000021   -0.000000013
     35        1           0.000000175    0.000000070    0.000000083
     36        1           0.000000026   -0.000000001   -0.000000037
     37        7           0.000000421   -0.000000251    0.000000171
     38        6          -0.000000083   -0.000000378   -0.000000363
     39        1           0.000000053    0.000000001    0.000000031
     40        1           0.000000019    0.000000335    0.000000376
     41        6          -0.000000422    0.000000251    0.000000000
     42        1           0.000000240   -0.000000113   -0.000000100
     43        1           0.000000094    0.000000006    0.000000052
     44        6          -0.000000033    0.000000135    0.000000039
     45        1           0.000000025   -0.000000006    0.000000023
     46        1          -0.000000007   -0.000000063    0.000000018
     47        6          -0.000000204   -0.000000158    0.000000149
     48        1           0.000000085    0.000000060   -0.000000140
     49        1          -0.000000023    0.000000023   -0.000000026
     50       35          -0.000000008    0.000000020    0.000000005
     51        6          -0.000000230   -0.000000326   -0.000000011
     52        6           0.000000305   -0.000000288    0.000000598
     53        1           0.000000147    0.000000101   -0.000000076
     54        1          -0.000000071    0.000000182   -0.000000131
     55        6           0.000000173    0.000000192   -0.000000356
     56        1          -0.000000124    0.000000157   -0.000000193
     57        1          -0.000000007    0.000000092   -0.000000064
     58        1           0.000000005   -0.000000022   -0.000000006
     59        1          -0.000000043   -0.000000071    0.000000141
     60        1          -0.000000160   -0.000000055    0.000000057
     61        6           0.000000347    0.000000564   -0.000000011
     62        6          -0.000000513   -0.000000478   -0.000000525
     63        1          -0.000000185   -0.000000329   -0.000000044
     64        1          -0.000000072   -0.000000026   -0.000000041
     65        6           0.000000212    0.000000067    0.000000172
     66        1          -0.000000034    0.000000067    0.000000206
     67        1           0.000000260    0.000000301    0.000000234
     68        1           0.000000107   -0.000000046   -0.000000036
     69        1          -0.000000066    0.000000014    0.000000002
     70        1          -0.000000126   -0.000000075   -0.000000075
     71        6          -0.000000374   -0.000000036    0.000000188
     72        6           0.000000268    0.000000098   -0.000000039
     73        1           0.000000025    0.000000016   -0.000000002
     74        1           0.000000030    0.000000005   -0.000000052
     75        6          -0.000000188   -0.000000262    0.000000147
     76        1          -0.000000077   -0.000000047    0.000000013
     77        1           0.000000030    0.000000016   -0.000000061
     78        1           0.000000230    0.000000235   -0.000000130
     79        1           0.000000004    0.000000023    0.000000051
     80        1          -0.000000070    0.000000007   -0.000000120
     81        6          -0.000000590    0.000000308   -0.000000801
     82        6           0.000000336   -0.000000382    0.000000523
     83        1           0.000000219   -0.000000138    0.000000001
     84        1           0.000000238    0.000000182    0.000000399
     85        6          -0.000000148    0.000000052    0.000000139
     86        1          -0.000000060   -0.000000057   -0.000000193
     87        1          -0.000000048    0.000000100    0.000000026
     88        1           0.000000028    0.000000049   -0.000000111
     89        1          -0.000000023   -0.000000013    0.000000033
     90        1           0.000000065   -0.000000049   -0.000000100
 -------------------------------------------------------------------
 Cartesian Forces:  Max     0.000000801 RMS     0.000000224
 IRC-IRC-IRC-IRC-IRC-IRC-IRC-IRC-IRC-IRC-IRC-IRC-IRC-IRC-IRC-IRC-IRC-IRC
          ******** Start new reaction path calculation ********
    4 atoms frozen in the vibrational analysis.
 Supplied step size of   0.1000 bohr.
    Integration on MW PES will use step size of   0.3365 sqrt(amu)*bohr.
 Point Number:   0          Path Number:   1
 Calculating another point on the path.
 IRC-IRC-IRC-IRC-IRC-IRC-IRC-IRC-IRC-IRC-IRC-IRC-IRC-IRC-IRC-IRC-IRC-IRC
 Symmetry turned off by external request.
 Stoichiometry    C28H45BrCl6LiN7OZn
 Framework group  C1[X(C28H45BrCl6LiN7OZn)]
 Deg. of freedom   264
 Full point group                 C1      NOp   1
                          Input orientation:                          
 ---------------------------------------------------------------------
 Center     Atomic      Atomic             Coordinates (Angstroms)
 Number     Number       Type             X           Y           Z
 ---------------------------------------------------------------------
      1          3           0       -1.732322   -6.833262   -3.630913
      2          7           0       -1.358940   -5.470450   -2.368157
      3          6           0       -2.061068   -5.838644   -1.257734
      4         17           0       -2.853530   -7.384275   -1.265388
      5          7           0        1.252080    0.804181   -2.592906
      6          6           0        2.170695   -0.189458   -2.529169
      7         17           0        3.732943   -0.054125   -3.259398
      8          7           0       -4.403631    0.280215    0.892256
      9          6           0       -4.581530    0.198151   -0.447209
     10         17           0       -5.946168    0.891636   -1.249458
     11         30           0       -0.928972   -1.879853   -0.146042
     12          7           0       -1.264665   -3.827606   -0.852235
     13          6           0       -2.012119   -4.843900   -0.325493
     14         17           0       -2.719172   -4.778829    1.229340
     15          7           0       -2.678378   -0.857171   -0.025830
     16          6           0       -3.542934   -0.491643   -1.018385
     17         17           0       -3.276223   -0.910366   -2.673100
     18          7           0        0.387246   -0.953781   -1.453639
     19          6           0        1.661805   -1.259370   -1.835107
     20         17           0        2.407504   -2.767133   -1.447179
     21          6           0       -0.903953   -4.247923   -2.067441
     22          1           0       -0.300883   -3.650409   -2.735460
     23          6           0       -3.263490   -0.362833    1.095531
     24          1           0       -2.821447   -0.498391    2.073447
     25          6           0        0.205378    0.294764   -1.948818
     26          1           0       -0.736884    0.814593   -1.836092
     27          6           0        1.102529   -1.293195    2.033477
     28          6           0        0.116085   -0.378109    2.575990
     29          8           0       -0.146220   -1.885070    1.690484
     30          6           0        1.946785   -2.108017    2.972303
     31          1           0       -0.335353    0.376304    1.952890
     32          1           0       -0.312496   -0.576547    3.546293
     33          1           0        2.401732   -2.948109    2.441223
     34          1           0        1.333125   -2.499506    3.787106
     35          1           0        2.734064   -1.479481    3.395005
     36          1           0        1.660821   -0.918665    1.172306
     37          7           0        2.127580    3.854293    0.206387
     38          6           0        0.841013    3.033300    0.322092
     39          1           0        0.934820    2.486931    1.264693
     40          1           0        0.877146    2.324726   -0.505974
     41          6           0        1.914057    4.979851   -0.776767
     42          1           0        1.113297    5.599189   -0.376546
     43          1           0        1.540801    4.505415   -1.687951
     44          6           0        3.221304    2.944263   -0.339014
     45          1           0        4.143831    3.523323   -0.276613
     46          1           0        2.981159    2.779332   -1.392381
     47          6           0        2.588148    4.348704    1.565468
     48          1           0        3.536542    4.861450    1.394616
     49          1           0        2.773638    3.453845    2.159827
     50         35           0        1.426293    1.579434    3.692465
     51          6           0        1.636968    5.231867    2.355626
     52          6           0        2.310862    5.656808    3.663436
     53          1           0        0.738699    4.665703    2.611394
     54          1           0        1.335269    6.122452    1.791386
     55          6           0        1.407076    6.538861    4.518718
     56          1           0        2.577372    4.753355    4.222370
     57          1           0        3.246466    6.187165    3.444234
     58          1           0        1.904285    6.827311    5.448162
     59          1           0        1.127834    7.456736    3.990991
     60          1           0        0.486489    6.011676    4.784852
     61          6           0        3.401142    1.602654    0.368112
     62          6           0        4.831169    1.090462    0.174362
     63          1           0        2.700260    0.878219   -0.054754
     64          1           0        3.179216    1.658357    1.437535
     65          6           0        5.022790   -0.308233    0.751330
     66          1           0        5.080735    1.082203   -0.892348
     67          1           0        5.528497    1.787541    0.656814
     68          1           0        6.057409   -0.643009    0.639058
     69          1           0        4.774858   -0.330939    1.817011
     70          1           0        4.382673   -1.033369    0.240236
     71          6           0       -0.486565    3.788836    0.273439
     72          6           0       -1.616286    2.873283    0.757233
     73          1           0       -0.705744    4.120780   -0.747044
     74          1           0       -0.475716    4.681356    0.902772
     75          6           0       -2.988475    3.533394    0.672218
     76          1           0       -1.625025    1.949123    0.167788
     77          1           0       -1.409436    2.579182    1.792974
     78          1           0       -3.763221    2.843232    1.012264
     79          1           0       -3.031271    4.436727    1.289995
     80          1           0       -3.226164    3.819913   -0.357264
     81          6           0        3.119928    5.853887   -1.096619
     82          6           0        2.721409    6.958993   -2.079251
     83          1           0        3.928000    5.264537   -1.539067
     84          1           0        3.517579    6.316524   -0.187385
     85          6           0        3.894085    7.864500   -2.442550
     86          1           0        2.311512    6.505031   -2.989037
     87          1           0        1.913426    7.559369   -1.644365
     88          1           0        3.586924    8.644498   -3.143295
     89          1           0        4.304510    8.356600   -1.555447
     90          1           0        4.702554    7.295512   -2.911441
 ---------------------------------------------------------------------
 Rotational constants (GHZ):           0.0649002           0.0308847           0.0287600
 Basis read from rwf:  (5D, 7F)
 Pseudo-potential data read from rwf file.
   897 basis functions,  1785 primitive gaussians,   944 cartesian basis functions
   211 alpha electrons      211 beta electrons
       nuclear repulsion energy      8613.6547989955 Hartrees.
 NAtoms=   90 NActive=   90 NUniq=   90 SFac= 1.00D+00 NAtFMM=   60 NAOKFM=T Big=T
 Integral buffers will be    131072 words long.
 Raffenetti 2 integral format.
 Two-electron integral symmetry is turned off.
 One-electron integrals computed using PRISM.
   1 Symmetry operations used in ECPInt.
 ECPInt:  NShTT=   54946 NPrTT=  301763 LenC2=   38815 LenP2D=  109832.
 LDataN:  DoStor=T MaxTD1= 5 Len=  102
 NBasis=   897 RedAO= T EigKep=  1.36D-03  NBF=   897
 NBsUse=   897 1.00D-06 EigRej= -1.00D+00 NBFU=   897
 Initial guess from the checkpoint file:  "IRC_3_TBAB.chk"
 B after Tr=    -2.033586   -3.391888   -0.327911
         Rot=    1.000000   -0.000007    0.000001   -0.000001 Ang=  -0.00 deg.
 ExpMin= 3.51D-02 ExpMax= 5.74D+05 ExpMxC= 5.74D+03 IAcc=3 IRadAn=         5 AccDes= 0.00D+00
 Harris functional with IExCor=20419 and IRadAn=       5 diagonalized for initial guess.
 HarFok:  IExCor=20419 AccDes= 0.00D+00 IRadAn=         5 IDoV= 1 UseB2=F ITyADJ=14
 ICtDFT=  3500011 ScaDFX=  1.000000  1.000000  1.000000  1.000000
 FoFCou: FMM=F IPFlag=           0 FMFlag=      100000 FMFlg1=        2001
         NFxFlg=           0 DoJE=T BraDBF=F KetDBF=T FulRan=T
         wScrn=  0.000000 ICntrl=       500 IOpCl=  0 I1Cent=   200000004 NGrid=           0
         NMat0=    1 NMatS0=      1 NMatT0=    0 NMatD0=    1 NMtDS0=    0 NMtDT0=    0
 Symmetry not used in FoFCou.
 Gradient too large for Newton-Raphson -- use scaled steepest descent instead.
 Gradient too large for Newton-Raphson -- use scaled steepest descent instead.
     Accept linear search using points  1 and  2.
 Gradient too large for Newton-Raphson -- use scaled steepest descent instead.
     Accept linear search using points  1 and  2.
 Gradient too large for Newton-Raphson -- use scaled steepest descent instead.
 Gradient too large for Newton-Raphson -- use scaled steepest descent instead.
     Accept linear search using points  1 and  2.
 Gradient too large for Newton-Raphson -- use scaled steepest descent instead.
     Minimum is close to point  4 DX=  1.74D-01 DF= -1.14D-06 DXR=  9.79D-02 DFR=  9.67D-03 which will be used.
 Gradient too large for Newton-Raphson -- use scaled steepest descent instead.
 Restarting incremental Fock formation.
 LinEq1:  Iter=  0 NonCon=     1 RMS=3.23D-05 Max=4.27D-03 NDo=     1
 AX will form     1 AO Fock derivatives at one time.
 LinEq1:  Iter=  1 NonCon=     1 RMS=1.05D-05 Max=3.64D-04 NDo=     1
 LinEq1:  Iter=  2 NonCon=     1 RMS=5.36D-06 Max=3.63D-04 NDo=     1
 LinEq1:  Iter=  3 NonCon=     1 RMS=3.10D-06 Max=1.44D-04 NDo=     1
 LinEq1:  Iter=  4 NonCon=     1 RMS=1.20D-06 Max=5.98D-05 NDo=     1
 LinEq1:  Iter=  5 NonCon=     1 RMS=6.25D-07 Max=5.67D-05 NDo=     1
 LinEq1:  Iter=  6 NonCon=     1 RMS=4.04D-07 Max=2.37D-05 NDo=     1
 LinEq1:  Iter=  7 NonCon=     1 RMS=1.57D-07 Max=7.79D-06 NDo=     1
 LinEq1:  Iter=  8 NonCon=     1 RMS=6.54D-08 Max=4.55D-06 NDo=     1
 LinEq1:  Iter=  9 NonCon=     1 RMS=3.88D-08 Max=3.03D-06 NDo=     1
 LinEq1:  Iter= 10 NonCon=     1 RMS=2.01D-08 Max=1.42D-06 NDo=     1
 LinEq1:  Iter= 11 NonCon=     1 RMS=1.07D-08 Max=8.70D-07 NDo=     1
 LinEq1:  Iter= 12 NonCon=     0 RMS=4.61D-09 Max=2.99D-07 NDo=     1
 Linear equations converged to 5.380D-08 5.380D-07 after    12 iterations.
     Minimum is close to point  2 DX=  4.25D-03 DF= -2.96D-09 DXR=  4.23D-03 DFR=  1.79D-05 which will be used.
 LinEq1:  Iter=  0 NonCon=     1 RMS=4.55D-07 Max=5.24D-05 NDo=     1
 LinEq1:  Iter=  1 NonCon=     1 RMS=1.54D-07 Max=1.42D-05 NDo=     1
 LinEq1:  Iter=  2 NonCon=     1 RMS=6.58D-08 Max=4.45D-06 NDo=     1
 LinEq1:  Iter=  3 NonCon=     1 RMS=3.81D-08 Max=2.62D-06 NDo=     1
 LinEq1:  Iter=  4 NonCon=     1 RMS=2.00D-08 Max=1.18D-06 NDo=     1
 LinEq1:  Iter=  5 NonCon=     1 RMS=8.73D-09 Max=8.39D-07 NDo=     1
 LinEq1:  Iter=  6 NonCon=     1 RMS=4.73D-09 Max=3.23D-07 NDo=     1
 LinEq1:  Iter=  7 NonCon=     1 RMS=2.02D-09 Max=1.16D-07 NDo=     1
 LinEq1:  Iter=  8 NonCon=     1 RMS=1.25D-09 Max=6.90D-08 NDo=     1
 LinEq1:  Iter=  9 NonCon=     1 RMS=7.87D-10 Max=4.82D-08 NDo=     1
 LinEq1:  Iter= 10 NonCon=     1 RMS=4.00D-10 Max=1.65D-08 NDo=     1
 LinEq1:  Iter= 11 NonCon=     0 RMS=1.63D-10 Max=1.02D-08 NDo=     1
 Linear equations converged to 1.465D-09 1.465D-08 after    11 iterations.
 SCF Done:  E(RCAM-B3LYP) =  -6957.55139565     a.u. after   10 cycles
            Convg  =    0.1695D-07                    48 Fock formations.
              S**2 =  0.0000                  -V/T =  1.9952
 DoSCS=F DFT=T ScalE2(SS,OS)=  1.000000  1.000000
 Range of M.O.s used for correlation:     1   897
 NBasis=   897 NAE=   211 NBE=   211 NFC=     0 NFV=     0
 NROrb=    897 NOA=   211 NOB=   211 NVA=   686 NVB=   686
 Symmetrizing basis deriv contribution to polar:
 IMax=3 JMax=2 DiffMx= 0.00D+00
   1 Symmetry operations used in ECPInt.
 ECPInt:  NShTT=   54946 NPrTT=  301763 LenC2=   38815 LenP2D=  109832.
 LDataN:  DoStor=T MaxTD1= 6 Len=  172
 Calling FoFJK, ICntrl=      2147 FMM=T ISym2X=0 I1Cent= 0 IOpClX= 0 NMat=1 NMatS=1 NMatT=0.
 -------------------------------------------------------------------
 Center     Atomic                   Forces (Hartrees/Bohr)
 Number     Number              X              Y              Z
 -------------------------------------------------------------------
      1        3          -0.000000000   -0.000000000   -0.000000000
      2        7          -0.000000000   -0.000000000   -0.000000000
      3        6          -0.000015343    0.000000679    0.000002797
      4       17           0.000000594    0.000051378    0.000022553
      5        7          -0.000000000   -0.000000000   -0.000000000
      6        6           0.000004004   -0.000018803   -0.000019605
      7       17          -0.000060367   -0.000037701   -0.000001460
      8        7          -0.000000000   -0.000000000   -0.000000000
      9        6           0.000028284   -0.000015579   -0.000011536
     10       17           0.000084611   -0.000055118    0.000018081
     11       30          -0.000733402    0.000263603   -0.001374407
     12        7           0.000137081   -0.000031427    0.000100523
     13        6           0.000012299   -0.000026205    0.000022430
     14       17           0.000019338    0.000014312    0.000035121
     15        7           0.000043701   -0.000036185    0.000123115
     16        6           0.000030504   -0.000016887    0.000017253
     17       17           0.000040052   -0.000025427    0.000057805
     18        7           0.000041615    0.000034455    0.000193791
     19        6           0.000044104    0.000009315    0.000023085
     20       17          -0.000004511   -0.000041256    0.000051379
     21        6           0.000059980   -0.000030132    0.000011546
     22        1           0.000007392   -0.000003897    0.000001337
     23        6          -0.000050329    0.000028068    0.000073315
     24        1          -0.000011434    0.000018050    0.000012584
     25        6           0.000027935    0.000057298    0.000050545
     26        1           0.000006047    0.000009922    0.000012529
     27        6           0.001815367   -0.000064237   -0.000016428
     28        6          -0.003604373   -0.005287958   -0.003272865
     29        8          -0.000786730    0.002833072    0.001810245
     30        6           0.000563706   -0.000343834    0.000209729
     31        1           0.000222148   -0.000330246    0.000185155
     32        1           0.000170739    0.000019219   -0.000363067
     33        1           0.000094921   -0.000027782    0.000072450
     34        1           0.000009859    0.000006850   -0.000003758
     35        1           0.000010961    0.000009075    0.000054324
     36        1           0.000045412   -0.000049306   -0.000079010
     37        7           0.000006679   -0.000000565    0.000045787
     38        6           0.000020539   -0.000017086    0.000125184
     39        1           0.000000745    0.000004459    0.000016254
     40        1           0.000002390   -0.000003242    0.000012512
     41        6           0.000001993   -0.000017109    0.000037716
     42        1           0.000002074   -0.000000928    0.000004607
     43        1          -0.000001604    0.000000352    0.000003353
     44        6          -0.000015699    0.000022872    0.000046840
     45        1          -0.000000393    0.000000501    0.000007876
     46        1           0.000003571    0.000007077    0.000002079
     47        6          -0.000008793   -0.000054262    0.000104831
     48        1           0.000006572   -0.000017227    0.000013714
     49        1          -0.000035005   -0.000007167    0.000023290
     50       35           0.001956431    0.003384168    0.001187858
     51        6          -0.000010729    0.000017107   -0.000001956
     52        6          -0.000005483   -0.000035210    0.000006823
     53        1           0.000007776   -0.000010284    0.000008203
     54        1          -0.000006653   -0.000001406    0.000000046
     55        6           0.000008275   -0.000007179   -0.000008539
     56        1          -0.000016955   -0.000014797   -0.000006082
     57        1           0.000002998   -0.000008313    0.000005168
     58        1          -0.000000066   -0.000001301   -0.000000280
     59        1          -0.000000019   -0.000000833    0.000000377
     60        1           0.000001561   -0.000002879   -0.000000983
     61        6          -0.000028894    0.000005344    0.000029779
     62        6          -0.000018814    0.000020760    0.000040979
     63        1           0.000001503    0.000003127   -0.000009856
     64        1          -0.000021147   -0.000007434    0.000002531
     65        6          -0.000001672    0.000011092    0.000012047
     66        1           0.000003999    0.000006104    0.000004976
     67        1          -0.000002725   -0.000000391    0.000009568
     68        1          -0.000000012    0.000000761    0.000003744
     69        1          -0.000003537    0.000002875    0.000000253
     70        1           0.000003108    0.000000055   -0.000002638
     71        6           0.000025746   -0.000003499    0.000026358
     72        6           0.000021170    0.000006978    0.000021640
     73        1           0.000004467    0.000003701    0.000002787
     74        1           0.000002652   -0.000001975    0.000006238
     75        6           0.000020915    0.000010118    0.000009887
     76        1           0.000002600    0.000003374    0.000000104
     77        1           0.000008134   -0.000004424   -0.000003916
[...]
     90          1           0        4.684486    7.293827   -2.942642
 ---------------------------------------------------------------------
 Rotational constants (GHZ):           0.0639219           0.0309800           0.0289933

 **********************************************************************

            Population analysis using the SCF Density.

 **********************************************************************

 Alpha  occ. eigenvalues -- -482.71049-101.64294-101.59887-101.59043-101.58493
 Alpha  occ. eigenvalues -- -101.57248-101.55612 -61.79235 -56.36194 -56.35905
 Alpha  occ. eigenvalues --  -56.35884 -19.11440 -14.55212 -14.42108 -14.41624
 Alpha  occ. eigenvalues --  -14.39238 -14.37231 -14.36832 -14.34010 -10.33948
 Alpha  occ. eigenvalues --  -10.33657 -10.33561 -10.33270 -10.32697 -10.31680
 Alpha  occ. eigenvalues --  -10.31361 -10.30405 -10.29761 -10.29738 -10.29043
 Alpha  occ. eigenvalues --  -10.28541 -10.28120 -10.27976 -10.27938 -10.27578
 Alpha  occ. eigenvalues --  -10.27260 -10.27227 -10.26843 -10.26836 -10.26560
 Alpha  occ. eigenvalues --  -10.26151 -10.25564 -10.25221 -10.24831 -10.23532
 Alpha  occ. eigenvalues --  -10.22375 -10.20323  -9.57508  -9.53074  -9.52205
 Alpha  occ. eigenvalues --   -9.51711  -9.50425  -9.48870  -8.57408  -7.33891
 Alpha  occ. eigenvalues --   -7.33026  -7.32899  -7.29555  -7.28644  -7.28484
 Alpha  occ. eigenvalues --   -7.28477  -7.28132  -7.27649  -7.27632  -7.27162
 Alpha  occ. eigenvalues --   -7.27139  -7.26854  -7.25865  -7.25862  -7.25295
 Alpha  occ. eigenvalues --   -7.24311  -7.24295  -6.59031  -6.57990  -6.57960
 Alpha  occ. eigenvalues --   -2.71206  -2.70917  -2.70893  -2.70068  -2.70068
 Alpha  occ. eigenvalues --   -2.14479  -1.11838  -1.10707  -1.06918  -1.04560
 Alpha  occ. eigenvalues --   -0.99667  -0.98660  -0.95883  -0.94148  -0.93014
 Alpha  occ. eigenvalues --   -0.92754  -0.92074  -0.91914  -0.91045  -0.90565
 Alpha  occ. eigenvalues --   -0.90483  -0.88914  -0.87796  -0.85544  -0.85428
 Alpha  occ. eigenvalues --   -0.85392  -0.84261  -0.82801  -0.79772  -0.79595
 Alpha  occ. eigenvalues --   -0.77480  -0.76756  -0.75958  -0.74490  -0.73830
 Alpha  occ. eigenvalues --   -0.73631  -0.72001  -0.69812  -0.69104  -0.68323
 Alpha  occ. eigenvalues --   -0.67315  -0.66638  -0.66109  -0.64996  -0.64198
 Alpha  occ. eigenvalues --   -0.63763  -0.63456  -0.62811  -0.62572  -0.62336
 Alpha  occ. eigenvalues --   -0.61632  -0.61502  -0.60772  -0.60487  -0.60339
 Alpha  occ. eigenvalues --   -0.59341  -0.58726  -0.58354  -0.58193  -0.56799
 Alpha  occ. eigenvalues --   -0.55810  -0.55446  -0.54797  -0.53087  -0.52647
 Alpha  occ. eigenvalues --   -0.52604  -0.52339  -0.51692  -0.51494  -0.51132
 Alpha  occ. eigenvalues --   -0.50677  -0.50003  -0.49670  -0.49663  -0.49259
 Alpha  occ. eigenvalues --   -0.49125  -0.48848  -0.48419  -0.47583  -0.47456
 Alpha  occ. eigenvalues --   -0.47105  -0.46951  -0.46771  -0.46582  -0.45906
 Alpha  occ. eigenvalues --   -0.45408  -0.45330  -0.45243  -0.44994  -0.44853
 Alpha  occ. eigenvalues --   -0.43844  -0.43661  -0.43472  -0.43353  -0.43013
 Alpha  occ. eigenvalues --   -0.42903  -0.42842  -0.42512  -0.42343  -0.42295
 Alpha  occ. eigenvalues --   -0.42178  -0.41761  -0.41584  -0.40975  -0.40664
 Alpha  occ. eigenvalues --   -0.40374  -0.40278  -0.39903  -0.39725  -0.39513
 Alpha  occ. eigenvalues --   -0.39136  -0.38983  -0.38798  -0.38520  -0.38269
 Alpha  occ. eigenvalues --   -0.37927  -0.37757  -0.37215  -0.36927  -0.36705
 Alpha  occ. eigenvalues --   -0.36047  -0.35362  -0.34982  -0.33450  -0.32843
 Alpha  occ. eigenvalues --   -0.32605  -0.32336  -0.31893  -0.29915  -0.29061
 Alpha  occ. eigenvalues --   -0.27551  -0.27514  -0.26534  -0.25393  -0.24349
 Alpha  occ. eigenvalues --   -0.22020
 Alpha virt. eigenvalues --   -0.04705   0.01287   0.01980   0.06077   0.06356
 Alpha virt. eigenvalues --    0.06952   0.07860   0.08534   0.09517   0.09920
 Alpha virt. eigenvalues --    0.10370   0.10696   0.10997   0.11247   0.11561
 Alpha virt. eigenvalues --    0.11970   0.12222   0.12544   0.12561   0.13119
 Alpha virt. eigenvalues --    0.13180   0.13343   0.13700   0.13760   0.14025
 Alpha virt. eigenvalues --    0.14444   0.14543   0.14666   0.14874   0.15085
 Alpha virt. eigenvalues --    0.15448   0.15736   0.16050   0.16214   0.16640
 Alpha virt. eigenvalues --    0.17130   0.17346   0.17574   0.17787   0.18538
 Alpha virt. eigenvalues --    0.18662   0.19047   0.19321   0.19680   0.19976
 Alpha virt. eigenvalues --    0.20187   0.20757   0.20862   0.21108   0.21275
 Alpha virt. eigenvalues --    0.21467   0.21662   0.21882   0.22344   0.22797
 Alpha virt. eigenvalues --    0.22900   0.23328   0.23421   0.23866   0.24353
 Alpha virt. eigenvalues --    0.24746   0.24920   0.25419   0.25747   0.25792
 Alpha virt. eigenvalues --    0.25917   0.26525   0.26769   0.27059   0.27445
 Alpha virt. eigenvalues --    0.27760   0.28022   0.28477   0.28682   0.29122
 Alpha virt. eigenvalues --    0.29278   0.29428   0.29549   0.30101   0.30162
 Alpha virt. eigenvalues --    0.30507   0.30872   0.31114   0.31483   0.31802
 Alpha virt. eigenvalues --    0.32465   0.32646   0.33410   0.33694   0.34104
 Alpha virt. eigenvalues --    0.34249   0.34496   0.34851   0.35123   0.35759
 Alpha virt. eigenvalues --    0.36026   0.36829   0.37893   0.38794   0.39383
 Alpha virt. eigenvalues --    0.41269   0.41826   0.42208   0.42731   0.42850
 Alpha virt. eigenvalues --    0.43526   0.44640   0.45295   0.45955   0.46761
 Alpha virt. eigenvalues --    0.47425   0.47927   0.48415   0.48797   0.49086
 Alpha virt. eigenvalues --    0.49574   0.50063   0.50250   0.50794   0.51208
 Alpha virt. eigenvalues --    0.51400   0.51712   0.52165   0.52293   0.52772
 Alpha virt. eigenvalues --    0.53024   0.53290   0.53442   0.53908   0.54100
 Alpha virt. eigenvalues --    0.54363   0.54971   0.55086   0.55309   0.55413
 Alpha virt. eigenvalues --    0.55833   0.55893   0.56577   0.56817   0.57599
 Alpha virt. eigenvalues --    0.57757   0.58078   0.58352   0.58455   0.59065
 Alpha virt. eigenvalues --    0.59442   0.60003   0.60072   0.60843   0.61415
 Alpha virt. eigenvalues --    0.61581   0.61909   0.62575   0.62885   0.63469
 Alpha virt. eigenvalues --    0.63583   0.63840   0.64100   0.64329   0.64548
 Alpha virt. eigenvalues --    0.64967   0.65474   0.65612   0.65874   0.66367
 Alpha virt. eigenvalues --    0.66838   0.67101   0.67540   0.67966   0.68334
 Alpha virt. eigenvalues --    0.68718   0.69191   0.69451   0.69508   0.69911
 Alpha virt. eigenvalues --    0.70217   0.70416   0.70512   0.71176   0.71703
 Alpha virt. eigenvalues --    0.72103   0.72363   0.72645   0.72926   0.73757
 Alpha virt. eigenvalues --    0.74482   0.74657   0.74904   0.75232   0.75339
 Alpha virt. eigenvalues --    0.75615   0.76158   0.76543   0.76777   0.77417
 Alpha virt. eigenvalues --    0.77894   0.78097   0.78157   0.78794   0.78984
 Alpha virt. eigenvalues --    0.79379   0.80609   0.80937   0.81344   0.81709
 Alpha virt. eigenvalues --    0.82261   0.83098   0.83485   0.83866   0.84227
 Alpha virt. eigenvalues --    0.84552   0.84933   0.85405   0.85913   0.86561
 Alpha virt. eigenvalues --    0.86974   0.87197   0.87523   0.88193   0.88372
 Alpha virt. eigenvalues --    0.88421   0.89051   0.89402   0.89543   0.89749
 Alpha virt. eigenvalues --    0.90329   0.90729   0.91016   0.91539   0.91838
 Alpha virt. eigenvalues --    0.92029   0.92234   0.92333   0.92419   0.92553
 Alpha virt. eigenvalues --    0.92786   0.93037   0.93356   0.93545   0.93592
 Alpha virt. eigenvalues --    0.93922   0.94226   0.94442   0.94859   0.95029
 Alpha virt. eigenvalues --    0.95173   0.95375   0.95641   0.95785   0.96221
 Alpha virt. eigenvalues --    0.96332   0.96674   0.96918   0.97111   0.97293
 Alpha virt. eigenvalues --    0.97412   0.97772   0.98088   0.98279   0.98636
 Alpha virt. eigenvalues --    0.98748   0.98925   0.99107   0.99277   0.99673
 Alpha virt. eigenvalues --    0.99772   0.99906   1.00156   1.00542   1.01009
 Alpha virt. eigenvalues --    1.01366   1.01545   1.01781   1.02386   1.02784
 Alpha virt. eigenvalues --    1.03232   1.03492   1.03728   1.04616   1.04895
 Alpha virt. eigenvalues --    1.05132   1.05678   1.05890   1.05992   1.06485
 Alpha virt. eigenvalues --    1.07125   1.07568   1.07811   1.08364   1.08548
 Alpha virt. eigenvalues --    1.08744   1.09528   1.09944   1.10220   1.10415
 Alpha virt. eigenvalues --    1.10920   1.11357   1.11564   1.12219   1.12648
 Alpha virt. eigenvalues --    1.13025   1.13650   1.13986   1.14166   1.14634
 Alpha virt. eigenvalues --    1.15373   1.15427   1.16045   1.16579   1.16837
 Alpha virt. eigenvalues --    1.17224   1.18083   1.18347   1.19601   1.20327
 Alpha virt. eigenvalues --    1.20554   1.21206   1.21586   1.22032   1.22530
 Alpha virt. eigenvalues --    1.22911   1.23380   1.24134   1.26017   1.27689
 Alpha virt. eigenvalues --    1.28471   1.29311   1.29822   1.29988   1.31156
 Alpha virt. eigenvalues --    1.32196   1.33510   1.34908   1.35714   1.36072
 Alpha virt. eigenvalues --    1.36684   1.37510   1.37667   1.37907   1.39943
 Alpha virt. eigenvalues --    1.40407   1.40770   1.41300   1.42428   1.43038
 Alpha virt. eigenvalues --    1.43067   1.43741   1.44376   1.45099   1.45845
 Alpha virt. eigenvalues --    1.46504   1.47458   1.47892   1.48509   1.48908
 Alpha virt. eigenvalues --    1.49115   1.49285   1.50098   1.50772   1.51181
 Alpha virt. eigenvalues --    1.51693   1.52516   1.52820   1.53309   1.53959
 Alpha virt. eigenvalues --    1.55384   1.57160   1.58233   1.58622   1.60323
 Alpha virt. eigenvalues --    1.60752   1.60936   1.61606   1.62623   1.62836
 Alpha virt. eigenvalues --    1.63782   1.64742   1.65090   1.65519   1.65992
 Alpha virt. eigenvalues --    1.66767   1.67686   1.68129   1.68606   1.69129
 Alpha virt. eigenvalues --    1.69561   1.70128   1.70461   1.71162   1.71529
 Alpha virt. eigenvalues --    1.71799   1.72242   1.73112   1.73394   1.73924
 Alpha virt. eigenvalues --    1.74243   1.74501   1.75068   1.75674   1.76449
 Alpha virt. eigenvalues --    1.76799   1.77557   1.78055   1.78110   1.78381
 Alpha virt. eigenvalues --    1.78695   1.79365   1.79712   1.80848   1.83474
 Alpha virt. eigenvalues --    1.84531   1.86437   1.87440   1.88332   1.89121
 Alpha virt. eigenvalues --    1.89451   1.90297   1.91652   1.91982   1.92046
 Alpha virt. eigenvalues --    1.93239   1.93814   1.94435   1.94820   1.95144
 Alpha virt. eigenvalues --    1.96080   1.96542   1.97155   1.97274   1.97950
 Alpha virt. eigenvalues --    1.98295   1.98805   1.99303   1.99974   2.00178
 Alpha virt. eigenvalues --    2.00612   2.01232   2.02006   2.02482   2.02705
 Alpha virt. eigenvalues --    2.03274   2.04102   2.06213   2.06648   2.07302
 Alpha virt. eigenvalues --    2.07813   2.09696   2.10112   2.10828   2.11024
 Alpha virt. eigenvalues --    2.11254   2.11350   2.12018   2.12342   2.12672
 Alpha virt. eigenvalues --    2.13011   2.13458   2.13706   2.13773   2.14407
 Alpha virt. eigenvalues --    2.14677   2.14794   2.15310   2.15413   2.15827
 Alpha virt. eigenvalues --    2.15969   2.16139   2.16691   2.16964   2.17441
 Alpha virt. eigenvalues --    2.17740   2.17813   2.18428   2.18662   2.19416
 Alpha virt. eigenvalues --    2.19551   2.19966   2.20575   2.21252   2.21891
 Alpha virt. eigenvalues --    2.22574   2.23005   2.24125   2.24201   2.24608
 Alpha virt. eigenvalues --    2.24853   2.25721   2.26345   2.26669   2.27049
 Alpha virt. eigenvalues --    2.27604   2.28230   2.28582   2.28923   2.29643
 Alpha virt. eigenvalues --    2.30251   2.30479   2.30987   2.31376   2.31761
 Alpha virt. eigenvalues --    2.32558   2.32599   2.34201   2.34634   2.34711
 Alpha virt. eigenvalues --    2.35459   2.35707   2.36422   2.36645   2.36869
 Alpha virt. eigenvalues --    2.37177   2.37370   2.37732   2.38406   2.38492
 Alpha virt. eigenvalues --    2.39313   2.39782   2.39956   2.40447   2.40731
 Alpha virt. eigenvalues --    2.41135   2.41636   2.42526   2.43325   2.43879
 Alpha virt. eigenvalues --    2.44413   2.44675   2.45413   2.45679   2.46267
 Alpha virt. eigenvalues --    2.47833   2.48766   2.48934   2.49993   2.50395
 Alpha virt. eigenvalues --    2.51169   2.51931   2.52039   2.52540   2.53173
 Alpha virt. eigenvalues --    2.53628   2.54366   2.55353   2.56983   2.57673
 Alpha virt. eigenvalues --    2.58340   2.59941   2.61007   2.62288   2.63646
 Alpha virt. eigenvalues --    2.65699   2.66107   2.66552   2.66830   2.67238
 Alpha virt. eigenvalues --    2.67851   2.68371   2.68828   2.69268   2.69438
 Alpha virt. eigenvalues --    2.70299   2.70547   2.71108   2.71717   2.71932
 Alpha virt. eigenvalues --    2.72112   2.72662   2.73051   2.73656   2.74802
 Alpha virt. eigenvalues --    2.74899   2.75433   2.76396   2.76510   2.78043
 Alpha virt. eigenvalues --    2.78157   2.78203   2.78821   2.79269   2.79537
 Alpha virt. eigenvalues --    2.80428   2.81727   2.81893   2.82416   2.82752
 Alpha virt. eigenvalues --    2.83322   2.83507   2.84229   2.84423   2.85916
 Alpha virt. eigenvalues --    2.86130   2.86583   2.87255   2.87559   2.88212
 Alpha virt. eigenvalues --    2.89063   2.89775   2.89881   2.90210   2.90565
 Alpha virt. eigenvalues --    2.91166   2.91634   2.92005   2.92388   2.93117
 Alpha virt. eigenvalues --    2.93912   2.94111   2.94491   2.94543   2.95036
 Alpha virt. eigenvalues --    2.95606   2.95962   2.96512   2.96672   2.97278
 Alpha virt. eigenvalues --    2.97611   2.98239   2.98751   2.98997   2.99435
 Alpha virt. eigenvalues --    2.99601   2.99743   2.99822   3.00870   3.01012
 Alpha virt. eigenvalues --    3.01512   3.01941   3.02868   3.03326   3.03769
 Alpha virt. eigenvalues --    3.04340   3.05049   3.05852   3.07261   3.08377
 Alpha virt. eigenvalues --    3.17978   3.21494   3.24088   3.24696   3.25271
 Alpha virt. eigenvalues --    3.27581   3.28440   3.29795   3.30722   3.32578
 Alpha virt. eigenvalues --    3.33367   3.34868   3.35677   3.36697   3.37179
 Alpha virt. eigenvalues --    3.38146   3.38478   3.38771   3.39462   3.41427
 Alpha virt. eigenvalues --    3.42954   3.43201   3.44193   3.46822   3.48004
 Alpha virt. eigenvalues --    3.48936   3.49541   3.51420   3.52757   3.53362
 Alpha virt. eigenvalues --    3.54113   3.55082   3.56450   3.57342   3.58431
 Alpha virt. eigenvalues --    3.59311   3.59397   3.60203   3.60647   3.61050
 Alpha virt. eigenvalues --    3.62682   3.63182   3.63655   3.64230   3.65179
 Alpha virt. eigenvalues --    3.65899   3.67186   3.69074   3.69645   8.63631
 Alpha virt. eigenvalues --    9.28363
          Condensed to atoms (all electrons):
 Mulliken charges:
               1
     1  Li   0.596750
     2  N   -0.500575
     3  C    0.056507
     4  Cl   0.043465
     5  N   -0.411341
     6  C   -0.012531
     7  Cl  -0.040742
     8  N   -0.382567
     9  C    0.002320
    10  Cl  -0.044518
    11  Zn   0.994840
    12  N   -0.510962
    13  C    0.057787
    14  Cl   0.056923
    15  N   -0.562169
    16  C    0.032335
    17  Cl  -0.032107
    18  N   -0.535481
    19  C    0.028287
    20  Cl  -0.010248
    21  C    0.228380
    22  H    0.144561
    23  C    0.162491
    24  H    0.105831
    25  C    0.157879
    26  H    0.114972
    27  C    0.244566
    28  C   -0.180347
    29  O   -0.717737
    30  C   -0.312982
    31  H    0.146085
    32  H    0.152956
    33  H    0.111010
    34  H    0.099725
    35  H    0.082157
    36  H    0.037115
    37  N   -0.412274
    38  C   -0.082916
    39  H    0.157970
    40  H    0.172397
    41  C   -0.060764
    42  H    0.142855
    43  H    0.164615
    44  C   -0.081685
    45  H    0.124299
    46  H    0.176931
    47  C   -0.064249
    48  H    0.126767
    49  H    0.157717
    50  Br  -0.258339
    51  C   -0.197859
    52  C   -0.186653
    53  H    0.140424
    54  H    0.102630
    55  C   -0.316061
    56  H    0.116823
    57  H    0.095260
    58  H    0.113804
    59  H    0.103328
    60  H    0.119151
    61  C   -0.212403
    62  C   -0.189094
    63  H    0.154330
    64  H    0.122780
    65  C   -0.320721
    66  H    0.118882
    67  H    0.080898
    68  H    0.100342
    69  H    0.108093
    70  H    0.134589
    71  C   -0.202373
    72  C   -0.200557
    73  H    0.112306
    74  H    0.099494
    75  C   -0.323145
    76  H    0.133710
    77  H    0.105747
    78  H    0.159376
    79  H    0.080702
    80  H    0.102306
    81  C   -0.206709
    82  C   -0.186039
    83  H    0.124835
    84  H    0.109945
    85  C   -0.315752
    86  H    0.114498
    87  H    0.103404
    88  H    0.116758
    89  H    0.105538
    90  H    0.111450
 Sum of Mulliken charges =  -0.00000
 Mulliken charges with hydrogens summed into heavy atoms:
               1
     1  Li   0.596750
     2  N   -0.500575
     3  C    0.056507
     4  Cl   0.043465
     5  N   -0.411341
     6  C   -0.012531
     7  Cl  -0.040742
     8  N   -0.382567
     9  C    0.002320
    10  Cl  -0.044518
    11  Zn   0.994840
    12  N   -0.510962
    13  C    0.057787
    14  Cl   0.056923
    15  N   -0.562169
    16  C    0.032335
    17  Cl  -0.032107
    18  N   -0.535481
    19  C    0.028287
    20  Cl  -0.010248
    21  C    0.372941
    23  C    0.268322
    25  C    0.272852
    27  C    0.281681
    28  C    0.118694
    29  O   -0.717737
    30  C   -0.020090
    37  N   -0.412274
    38  C    0.247452
    41  C    0.246707
    44  C    0.219545
    47  C    0.220235
    50  Br  -0.258339
    51  C    0.045195
    52  C    0.025429
    55  C    0.020223
    61  C    0.064707
    62  C    0.010685
    65  C    0.022302
    71  C    0.009427
    72  C    0.038901
    75  C    0.019238
    81  C    0.028071
    82  C    0.031863
    85  C    0.017994
 Electronic spatial extent (au):  <R**2>=          39407.9948
 Charge=              0.0000 electrons
 Dipole moment (field-independent basis, Debye):
    X=              8.8622    Y=              1.3100    Z=             -6.2441  Tot=             10.9199
 Quadrupole moment (field-independent basis, Debye-Ang):
   XX=           -366.3184   YY=           -180.1933   ZZ=           -310.9668
   XY=             53.5812   XZ=             18.9618   YZ=             67.4059
 Traceless Quadrupole moment (field-independent basis, Debye-Ang):
   XX=            -80.4922   YY=            105.6329   ZZ=            -25.1406
   XY=             53.5812   XZ=             18.9618   YZ=             67.4059
 Octapole moment (field-independent basis, Debye-Ang**2):
  XXX=            197.7062  YYY=           -607.9985  ZZZ=            -59.6485  XYY=            -49.6730
  XXY=            -53.0847  XXZ=             27.7472  XZZ=           -113.2896  YZZ=           -333.6009
  YYZ=           -453.0879  XYZ=           -114.3447
 Hexadecapole moment (field-independent basis, Debye-Ang**3):
 XXXX=         -17162.2475 YYYY=         -19748.5165 ZZZZ=          -8175.7205 XXXY=          -3843.8099
 XXXZ=           -413.8405 YYYX=          -2195.1926 YYYZ=           1657.5880 ZZZX=           -178.1679
 ZZZY=           -505.4419 XXYY=          -6531.1645 XXZZ=          -4145.7748 YYZZ=          -3671.3955
 XXYZ=           -428.5974 YYXZ=            648.6070 ZZXY=           -809.1881
 N-N= 8.611894677078D+03 E-N=-3.380031890534D+04  KE= 6.991383695920D+03
  Exact polarizability:   0.000   0.000   0.000   0.000   0.000   0.000
 Approx polarizability: 497.084   1.950 511.312 -21.256  10.667 511.110

 This type of calculation cannot be archived.


 ERWIN WITH HIS PSI CAN DO
 CALCULATIONS QUITE A FEW.
 BUT ONE THING HAS NOT BEEN SEEN
 JUST WHAT DOES PSI REALLY MEAN.
 -- WALTER HUCKEL, TRANS. BY FELIX BLOCH
 Job cpu time:      40 days  1 hours 14 minutes  8.0 seconds.
 Elapsed time:       0 days 15 hours 45 minutes 43.7 seconds.
 File lengths (MBytes):  RWF=   7821 Int=      0 D2E=      0 Chk=     66 Scr=      2
 Normal termination of Gaussian 16 at Tue Mar  7 09:12:21 2023.
