 Entering Gaussian System, Link 0=g16
 Input=PO_opt_freq_6_31G.com
 Output=PO_opt_freq_6_31G.log
 Initial command:
 /apps/commercial/G16/g16.linda/l1.exe "/scratch/x1711a05/Gau-65227.inp" -scrdir="/scratch/x1711a05/"
 Default linda workers: node5782
 Entering Link 1 = /apps/commercial/G16/g16.linda/l1.exe PID=     65228.
  
 Copyright (c) 1988,1990,1992,1993,1995,1998,2003,2009,2016,
            Gaussian, Inc.  All Rights Reserved.
  
 This is part of the Gaussian(R) 16 program.  It is based on
 the Gaussian(R) 09 system (copyright 2009, Gaussian, Inc.),
 the Gaussian(R) 03 system (copyright 2003, Gaussian, Inc.),
 the Gaussian(R) 98 system (copyright 1998, Gaussian, Inc.),
 the Gaussian(R) 94 system (copyright 1995, Gaussian, Inc.),
 the Gaussian 92(TM) system (copyright 1992, Gaussian, Inc.),
 the Gaussian 90(TM) system (copyright 1990, Gaussian, Inc.),
 the Gaussian 88(TM) system (copyright 1988, Gaussian, Inc.),
 the Gaussian 86(TM) system (copyright 1986, Carnegie Mellon
 University), and the Gaussian 82(TM) system (copyright 1983,
 Carnegie Mellon University). Gaussian is a federally registered
 trademark of Gaussian, Inc.
  
 This software contains proprietary and confidential information,
 including trade secrets, belonging to Gaussian, Inc.
  
 This software is provided under written license and may be
 used, copied, transmitted, or stored only in accord with that
 written license.
  
 The following legend is applicable only to US Government
 contracts under FAR:
  
                    RESTRICTED RIGHTS LEGEND
  
 Use, reproduction and disclosure by the US Government is
 subject to restrictions as set forth in subparagraphs (a)
 and (c) of the Commercial Computer Software - Restricted
 Rights clause in FAR 52.227-19.
  
 Gaussian, Inc.
 340 Quinnipiac St., Bldg. 40, Wallingford CT 06492
  
  
 ---------------------------------------------------------------
 Warning -- This program may not be used in any manner that
 competes with the business of Gaussian, Inc. or will provide
 assistance to any competitor of Gaussian, Inc.  The licensee
 of this program is prohibited from giving any competitor of
 Gaussian, Inc. access to this program.  By using this program,
 the user acknowledges that Gaussian, Inc. is engaged in the
 business of creating and licensing software in the field of
 computational chemistry and represents and warrants to the
 licensee that it is not a competitor of Gaussian, Inc. and that
 it will not use this program in any manner prohibited above.
 ---------------------------------------------------------------
  

 Cite this work as:
 Gaussian 16, Revision A.03,
 M. J. Frisch, G. W. Trucks, H. B. Schlegel, G. E. Scuseria, 
 M. A. Robb, J. R. Cheeseman, G. Scalmani, V. Barone, 
 G. A. Petersson, H. Nakatsuji, X. Li, M. Caricato, A. V. Marenich, 
 J. Bloino, B. G. Janesko, R. Gomperts, B. Mennucci, H. P. Hratchian, 
 J. V. Ortiz, A. F. Izmaylov, J. L. Sonnenberg, D. Williams-Young, 
 F. Ding, F. Lipparini, F. Egidi, J. Goings, B. Peng, A. Petrone, 
 T. Henderson, D. Ranasinghe, V. G. Zakrzewski, J. Gao, N. Rega, 
 G. Zheng, W. Liang, M. Hada, M. Ehara, K. Toyota, R. Fukuda, 
 J. Hasegawa, M. Ishida, T. Nakajima, Y. Honda, O. Kitao, H. Nakai, 
 T. Vreven, K. Throssell, J. A. Montgomery, Jr., J. E. Peralta, 
 F. Ogliaro, M. J. Bearpark, J. J. Heyd, E. N. Brothers, K. N. Kudin, 
 V. N. Staroverov, T. A. Keith, R. Kobayashi, J. Normand, 
 K. Raghavachari, A. P. Rendell, J. C. Burant, S. S. Iyengar, 
 J. Tomasi, M. Cossi, J. M. Millam, M. Klene, C. Adamo, R. Cammi, 
 J. W. Ochterski, R. L. Martin, K. Morokuma, O. Farkas, 
 J. B. Foresman, and D. J. Fox, Gaussian, Inc., Wallingford CT, 2016.
 
 ******************************************
 Gaussian 16:  ES64L-G16RevA.03 25-Dec-2016
                22-Aug-2019 
 ******************************************
 %nprocshared=64
 Will use up to   64 processors via shared memory.
 %mem=64GB
 %chk=PO_opt_freq_6_31G.chk
 SetLPE:    new flags="-opt 'Tsnet.Node.lindarsharg: ssh'  -nodelist 'node5782' -env GAUSS_MDEF=8589934592 -env GAUSS_EXEDIR="/apps/commercial/G16/g16.linda""
 Will use up to    1 processors via Linda.
 ------------------------------------------------------------------
 # opt=(calcfc,tight) freq cam-b3lyp/gen nosymm pseudo=read scf=xqc
 ------------------------------------------------------------------
 1/7=10,10=4,18=20,19=15,26=3,38=1/1,3;
 2/9=110,12=2,15=1,17=6,18=5,40=1/2;
 3/5=7,11=2,16=1,17=8,25=1,30=1,71=2,74=-40,140=1/1,2,3;
 4//1;
 5/5=2,8=3,13=1,38=5/2,8;
 8/6=4,10=90,11=11/1;
 11/6=1,8=1,9=11,15=111,16=1,31=1/1,2,10;
 10/6=1,13=1,31=1/2;
 6/7=2,8=2,9=2,10=2,28=1/1;
 7/10=1,18=20,25=1,30=1/1,2,3,16;
 1/7=10,10=4,18=20,19=15,26=3/3(2);
 2/9=110,15=1/2;
 99//99;
 2/9=110,15=1/2;
 3/5=7,6=1,11=2,16=1,17=8,25=1,30=1,71=1,74=-40,82=7/1,2,3;
 4/5=5,16=3,69=1/1;
 5/5=2,8=3,13=1,38=5/2,8;
 7/30=1/1,2,3,16;
 1/7=10,18=20,19=15,26=3/3(-5);
 2/9=110,15=1/2;
 6/7=2,8=2,9=2,10=2,19=2,28=1/1;
 99/9=1/99;
 -----------------
 PO_opt_freq_6_31G
 -----------------
 Symbolic Z-matrix:
 Charge =  0 Multiplicity = 1
 C                    -0.14954  -0.04597   0.48815 
 C                     1.03937   0.61387  -0.05716 
 O                     0.82109  -0.77917  -0.25164 
 C                    -1.50347   0.10005  -0.14751 
 H                     1.86961   0.8732    0.59825 
 H                     0.94286   1.2318   -0.94935 
 H                    -2.07242  -0.82977  -0.06019 
 H                    -1.40175   0.33884  -1.20876 
 H                    -2.07694   0.89521   0.33816 
 H                    -0.15121  -0.27285   1.55576 
 

 GradGradGradGradGradGradGradGradGradGradGradGradGradGradGradGradGradGrad
 Berny optimization.
 Initialization pass.
                           ----------------------------
                           !    Initial Parameters    !
                           ! (Angstroms and Degrees)  !
 --------------------------                            --------------------------
 ! Name  Definition              Value          Derivative Info.                !
 --------------------------------------------------------------------------------
 ! R1    R(1,2)                  1.465          calculate D2E/DX2 analytically  !
 ! R2    R(1,3)                  1.4237         calculate D2E/DX2 analytically  !
 ! R3    R(1,4)                  1.5028         calculate D2E/DX2 analytically  !
 ! R4    R(1,10)                 1.0915         calculate D2E/DX2 analytically  !
 ! R5    R(2,3)                  1.4234         calculate D2E/DX2 analytically  !
 ! R6    R(2,5)                  1.0891         calculate D2E/DX2 analytically  !
 ! R7    R(2,6)                  1.0896         calculate D2E/DX2 analytically  !
 ! R8    R(4,7)                  1.0936         calculate D2E/DX2 analytically  !
 ! R9    R(4,8)                  1.0925         calculate D2E/DX2 analytically  !
 ! R10   R(4,9)                  1.0941         calculate D2E/DX2 analytically  !
 ! A1    A(2,1,4)              122.0006         calculate D2E/DX2 analytically  !
 ! A2    A(2,1,10)             117.3202         calculate D2E/DX2 analytically  !
 ! A3    A(3,1,4)              116.3888         calculate D2E/DX2 analytically  !
 ! A4    A(3,1,10)             113.7192         calculate D2E/DX2 analytically  !
 ! A5    A(4,1,10)             115.6293         calculate D2E/DX2 analytically  !
 ! A6    A(1,2,5)              120.1259         calculate D2E/DX2 analytically  !
 ! A7    A(1,2,6)              119.232          calculate D2E/DX2 analytically  !
 ! A8    A(3,2,5)              115.6051         calculate D2E/DX2 analytically  !
 ! A9    A(3,2,6)              115.4409         calculate D2E/DX2 analytically  !
 ! A10   A(5,2,6)              115.1672         calculate D2E/DX2 analytically  !
 ! A11   A(1,4,7)              110.6304         calculate D2E/DX2 analytically  !
 ! A12   A(1,4,8)              110.3785         calculate D2E/DX2 analytically  !
 ! A13   A(1,4,9)              110.7981         calculate D2E/DX2 analytically  !
 ! A14   A(7,4,8)              108.1703         calculate D2E/DX2 analytically  !
 ! A15   A(7,4,9)              108.0477         calculate D2E/DX2 analytically  !
 ! A16   A(8,4,9)              108.7318         calculate D2E/DX2 analytically  !
 ! D1    D(4,1,2,5)            152.7743         calculate D2E/DX2 analytically  !
 ! D2    D(4,1,2,6)              0.1311         calculate D2E/DX2 analytically  !
 ! D3    D(10,1,2,5)            -0.9784         calculate D2E/DX2 analytically  !
 ! D4    D(10,1,2,6)          -153.6216         calculate D2E/DX2 analytically  !
 ! D5    D(2,1,4,7)            144.7562         calculate D2E/DX2 analytically  !
 ! D6    D(2,1,4,8)             25.0662         calculate D2E/DX2 analytically  !
 ! D7    D(2,1,4,9)            -95.4349         calculate D2E/DX2 analytically  !
 ! D8    D(3,1,4,7)             76.3191         calculate D2E/DX2 analytically  !
 ! D9    D(3,1,4,8)            -43.371          calculate D2E/DX2 analytically  !
 ! D10   D(3,1,4,9)           -163.872          calculate D2E/DX2 analytically  !
 ! D11   D(10,1,4,7)           -61.0795         calculate D2E/DX2 analytically  !
 ! D12   D(10,1,4,8)           179.2304         calculate D2E/DX2 analytically  !
 ! D13   D(10,1,4,9)            58.7294         calculate D2E/DX2 analytically  !
 --------------------------------------------------------------------------------
 Trust Radius=3.00D-01 FncErr=1.00D-07 GrdErr=1.00D-06 EigMax=2.50D+02 EigMin=1.00D-04
 Number of steps in this run=     49 maximum allowed number of steps=    100.
 GradGradGradGradGradGradGradGradGradGradGradGradGradGradGradGradGradGrad

                          Input orientation:                          
 ---------------------------------------------------------------------
 Center     Atomic      Atomic             Coordinates (Angstroms)
 Number     Number       Type             X           Y           Z
 ---------------------------------------------------------------------
      1          6           0       -0.149538   -0.045969    0.488147
      2          6           0        1.039368    0.613872   -0.057161
      3          8           0        0.821093   -0.779168   -0.251638
      4          6           0       -1.503468    0.100045   -0.147509
      5          1           0        1.869606    0.873201    0.598245
      6          1           0        0.942858    1.231797   -0.949346
      7          1           0       -2.072420   -0.829768   -0.060187
      8          1           0       -1.401751    0.338835   -1.208757
      9          1           0       -2.076936    0.895211    0.338155
     10          1           0       -0.151213   -0.272854    1.555756
 ---------------------------------------------------------------------
                    Distance matrix (angstroms):
                    1          2          3          4          5
     1  C    0.000000
     2  C    1.465008   0.000000
     3  O    1.423723   1.423385   0.000000
     4  C    1.502832   2.595804   2.487457   0.000000
     5  H    2.221247   1.089084   2.133543   3.539993   0.000000
     6  H    2.211877   1.089559   2.132042   2.812173   1.839155
     7  H    2.147670   3.430354   2.900281   1.093565   4.344330
     8  H    2.143734   2.713094   2.665904   1.092527   3.775259
     9  H    2.150158   3.153851   3.398525   1.094086   3.955164
    10  H    1.091453   2.192092   2.113860   2.206526   2.512763
                    6          7          8          9         10
     6  H    0.000000
     7  H    3.759329   0.000000
     8  H    2.522274   1.770492   0.000000
     9  H    3.300016   1.770381   1.777179   0.000000
    10  H    3.120337   2.571471   3.095245   2.560339   0.000000
 Symmetry turned off by external request.
 Stoichiometry    C3H6O
 Framework group  C1[X(C3H6O)]
 Deg. of freedom    24
 Full point group                 C1      NOp   1
 Rotational constants (GHZ):          18.2760130           6.6921362           5.9783079
 General basis read from cards:  (5D, 7F)
 ======================================================================================================
                                       Pseudopotential Parameters
 ======================================================================================================
  Center     Atomic      Valence      Angular      Power
  Number     Number     Electrons     Momentum     of R      Exponent        Coefficient   SO-Coeffient
 ======================================================================================================
    1          6
                                   No pseudopotential on this center.
    2          6
                                   No pseudopotential on this center.
    3          8
                                   No pseudopotential on this center.
    4          6
                                   No pseudopotential on this center.
    5          1
                                   No pseudopotential on this center.
    6          1
                                   No pseudopotential on this center.
    7          1
                                   No pseudopotential on this center.
    8          1
                                   No pseudopotential on this center.
    9          1
                                   No pseudopotential on this center.
   10          1
                                   No pseudopotential on this center.
 ======================================================================================================
    86 basis functions,   154 primitive gaussians,    90 cartesian basis functions
    16 alpha electrons       16 beta electrons
       nuclear repulsion energy       125.0026902924 Hartrees.
 NAtoms=   10 NActive=   10 NUniq=   10 SFac= 1.00D+00 NAtFMM=   60 NAOKFM=F Big=F
 Integral buffers will be    131072 words long.
 Raffenetti 2 integral format.
 Two-electron integral symmetry is turned off.
 One-electron integrals computed using PRISM.
   1 Symmetry operations used in ECPInt.
 ECPInt:  NShTT=     595 NPrTT=    2865 LenC2=     596 LenP2D=    2401.
 LDataN:  DoStor=T MaxTD1= 4 Len=   56
 NBasis=    86 RedAO= T EigKep=  3.89D-03  NBF=    86
 NBsUse=    86 1.00D-06 EigRej= -1.00D+00 NBFU=    86
 ExpMin= 1.61D-01 ExpMax= 5.48D+03 ExpMxC= 8.25D+02 IAcc=3 IRadAn=         5 AccDes= 0.00D+00
 Harris functional with IExCor=20419 and IRadAn=       5 diagonalized for initial guess.
 HarFok:  IExCor=20419 AccDes= 0.00D+00 IRadAn=         5 IDoV= 1 UseB2=F ITyADJ=14
 ICtDFT=  3500011 ScaDFX=  1.000000  1.000000  1.000000  1.000000
 FoFCou: FMM=F IPFlag=           0 FMFlag=      100000 FMFlg1=           0
         NFxFlg=           0 DoJE=T BraDBF=F KetDBF=T FulRan=T
         wScrn=  0.000000 ICntrl=       500 IOpCl=  0 I1Cent=   200000004 NGrid=           0
         NMat0=    1 NMatS0=      1 NMatT0=    0 NMatD0=    1 NMtDS0=    0 NMtDT0=    0
 Symmetry not used in FoFCou.
 Keep R1 ints in memory in canonical form, NReq=72426534.
 Requested convergence on RMS density matrix=1.00D-08 within  32 cycles.
 Requested convergence on MAX density matrix=1.00D-06.
 Requested convergence on             energy=1.00D-06.
 No special actions if energy rises.
 Integral accuracy reduced to 1.0D-05 until final iterations.
 Initial convergence to 1.0D-05 achieved.  Increase integral accuracy.
 SCF Done:  E(RCAM-B3LYP) =  -193.013621531     A.U. after   12 cycles
            NFock= 12  Conv=0.55D-08     -V/T= 2.0065
 QCSCF skips out because SCF is already converged.
 DoSCS=F DFT=T ScalE2(SS,OS)=  1.000000  1.000000
 Range of M.O.s used for correlation:     1    86
 NBasis=    86 NAE=    16 NBE=    16 NFC=     0 NFV=     0
 NROrb=     86 NOA=    16 NOB=    16 NVA=    70 NVB=    70
   1 Symmetry operations used in ECPInt.
 ECPInt:  NShTT=     595 NPrTT=    2865 LenC2=     596 LenP2D=    2401.
 LDataN:  DoStor=T MaxTD1= 5 Len=  102
 Symmetrizing basis deriv contribution to polar:
 IMax=3 JMax=2 DiffMx= 0.00D+00
 G2DrvN: will do    11 centers at a time, making    1 passes.
 Calling FoFCou, ICntrl=  3107 FMM=F I1Cent=   0 AccDes= 0.00D+00.
 End of G2Drv F.D. properties file   721 does not exist.
 End of G2Drv F.D. properties file   722 does not exist.
 End of G2Drv F.D. properties file   788 does not exist.
          IDoAtm=1111111111
          Differentiating once with respect to nuclear coordinates.
 Keep R1 ints in memory in canonical form, NReq=72211412.
          There are    33 degrees of freedom in the 1st order CPHF.  IDoFFX=6 NUNeed=     0.
     27 vectors produced by pass  0 Test12= 3.39D-15 3.03D-09 XBig12= 7.81D-02 6.84D-02.
 AX will form    27 AO Fock derivatives at one time.
     27 vectors produced by pass  1 Test12= 3.39D-15 3.03D-09 XBig12= 6.08D-03 1.64D-02.
     27 vectors produced by pass  2 Test12= 3.39D-15 3.03D-09 XBig12= 1.67D-04 3.23D-03.
     27 vectors produced by pass  3 Test12= 3.39D-15 3.03D-09 XBig12= 2.55D-06 2.89D-04.
     27 vectors produced by pass  4 Test12= 3.39D-15 3.03D-09 XBig12= 1.20D-08 1.79D-05.
     27 vectors produced by pass  5 Test12= 3.39D-15 3.03D-09 XBig12= 2.72D-11 7.47D-07.
     12 vectors produced by pass  6 Test12= 3.39D-15 3.03D-09 XBig12= 8.05D-14 3.72D-08.
 InvSVY:  IOpt=1 It=  1 EMax= 1.55D-15
 Solved reduced A of dimension   174 with    27 vectors.
 End of Minotr F.D. properties file   721 does not exist.
 End of Minotr F.D. properties file   722 does not exist.
 End of Minotr F.D. properties file   788 does not exist.

 **********************************************************************

            Population analysis using the SCF density.

 **********************************************************************

 Alpha  occ. eigenvalues --  -19.21889 -10.30889 -10.30128 -10.25113  -1.15045
 Alpha  occ. eigenvalues --   -0.82444  -0.73359  -0.66864  -0.57602  -0.53287
 Alpha  occ. eigenvalues --   -0.49170  -0.46693  -0.43616  -0.42810  -0.35806
 Alpha  occ. eigenvalues --   -0.32640
 Alpha virt. eigenvalues --    0.15728   0.16885   0.18250   0.18802   0.19956
 Alpha virt. eigenvalues --    0.22893   0.23304   0.23805   0.31593   0.37898
 Alpha virt. eigenvalues --    0.52944   0.57778   0.60094   0.63368   0.64909
 Alpha virt. eigenvalues --    0.68693   0.72157   0.75623   0.82714   0.85703
 Alpha virt. eigenvalues --    0.91586   0.92383   0.94054   0.97152   0.98951
 Alpha virt. eigenvalues --    1.01726   1.04870   1.09158   1.11470   1.32445
 Alpha virt. eigenvalues --    1.42332   1.45114   1.55336   1.62123   1.64554
 Alpha virt. eigenvalues --    1.73317   1.80543   1.88207   1.89957   1.96561
 Alpha virt. eigenvalues --    2.03123   2.10531   2.11554   2.12579   2.15320
 Alpha virt. eigenvalues --    2.16022   2.22559   2.27331   2.29592   2.38498
 Alpha virt. eigenvalues --    2.42980   2.44547   2.47076   2.57127   2.65438
 Alpha virt. eigenvalues --    2.74303   2.78104   2.80207   2.87148   2.90045
 Alpha virt. eigenvalues --    2.92795   2.97408   3.02439   3.11124   3.27009
 Alpha virt. eigenvalues --    3.36182   3.45915   3.52003   3.52437   3.61136
          Condensed to atoms (all electrons):
               1          2          3          4          5          6
     1  C    4.692259   0.329936   0.188570   0.391787  -0.018438  -0.019405
     2  C    0.329936   4.787688   0.191247  -0.029966   0.379381   0.382908
     3  O    0.188570   0.191247   8.197401  -0.036067  -0.028145  -0.031177
     4  C    0.391787  -0.029966  -0.036067   4.915986   0.000957  -0.001554
     5  H   -0.018438   0.379381  -0.028145   0.000957   0.610030  -0.048923
     6  H   -0.019405   0.382908  -0.031177  -0.001554  -0.048923   0.611153
     7  H   -0.029458   0.004463  -0.002392   0.385085  -0.000143   0.000105
     8  H   -0.030702  -0.004617   0.001527   0.384100   0.000146   0.002295
     9  H   -0.025467  -0.003002   0.003297   0.365743   0.000241  -0.000260
    10  H    0.386551  -0.027738  -0.030801  -0.053523  -0.000989   0.001314
               7          8          9         10
     1  C   -0.029458  -0.030702  -0.025467   0.386551
     2  C    0.004463  -0.004617  -0.003002  -0.027738
     3  O   -0.002392   0.001527   0.003297  -0.030801
     4  C    0.385085   0.384100   0.365743  -0.053523
     5  H   -0.000143   0.000146   0.000241  -0.000989
     6  H    0.000105   0.002295  -0.000260   0.001314
     7  H    0.586005  -0.028904  -0.031030  -0.003330
     8  H   -0.028904   0.582202  -0.025101   0.004848
     9  H   -0.031030  -0.025101   0.605987   0.001456
    10  H   -0.003330   0.004848   0.001456   0.621638
 Mulliken charges:
               1
     1  C    0.134365
     2  C   -0.010300
     3  O   -0.453460
     4  C   -0.322548
     5  H    0.105882
     6  H    0.103543
     7  H    0.119599
     8  H    0.114205
     9  H    0.108137
    10  H    0.100576
 Sum of Mulliken charges =  -0.00000
 Mulliken charges with hydrogens summed into heavy atoms:
               1
     1  C    0.234942
     2  C    0.199126
     3  O   -0.453460
     4  C    0.019393
 APT charges:
               1
     1  C   -0.324651
     2  C   -0.557807
     3  O   -0.350226
     4  C   -1.023805
     5  H    0.437898
     6  H    0.343677
     7  H    0.404008
     8  H    0.300065
     9  H    0.400292
    10  H    0.370548
 Sum of APT charges =  -0.00000
 APT charges with hydrogens summed into heavy atoms:
               1
     1  C    0.045898
     2  C    0.223768
     3  O   -0.350226
     4  C    0.080560
 Electronic spatial extent (au):  <R**2>=            265.8486
 Charge=             -0.0000 electrons
 Dipole moment (field-independent basis, Debye):
    X=             -0.8601    Y=              1.6644    Z=              0.7019  Tot=              2.0006
 Quadrupole moment (field-independent basis, Debye-Ang):
   XX=            -24.0886   YY=            -25.9008   ZZ=            -23.9696
   XY=              2.2528   XZ=              0.4322   YZ=             -1.0519
 Traceless Quadrupole moment (field-independent basis, Debye-Ang):
   XX=              0.5644   YY=             -1.2478   ZZ=              0.6834
   XY=              2.2528   XZ=              0.4322   YZ=             -1.0519
 Octapole moment (field-independent basis, Debye-Ang**2):
  XXX=              3.7939  YYY=             -1.8212  ZZZ=             -0.2246  XYY=             -0.3738
  XXY=              1.2621  XXZ=              0.8830  XZZ=              1.1971  YZZ=             -0.2698
  YYZ=             -0.2188  XYZ=             -0.4309
 Hexadecapole moment (field-independent basis, Debye-Ang**3):
 XXXX=           -213.0711 YYYY=            -72.4056 ZZZZ=            -53.6747 XXXY=              1.1580
 XXXZ=              0.0722 YYYX=             -0.0083 YYYZ=             -0.1072 ZZZX=             -0.1369
 ZZZY=             -1.2199 XXYY=            -46.5483 XXZZ=            -44.9834 YYZZ=            -21.2725
 XXYZ=              1.3288 YYXZ=             -0.8055 ZZXY=             -0.4557
 N-N= 1.250026902924D+02 E-N=-7.002930852169D+02  KE= 1.917737202331D+02
  Exact polarizability:   0.000   0.000   0.000   0.000   0.000   0.000
 Approx polarizability:  40.003   2.687  36.787  -2.395  -0.956  35.881
   1 Symmetry operations used in ECPInt.
 ECPInt:  NShTT=     595 NPrTT=    2865 LenC2=     596 LenP2D=    2401.
 LDataN:  DoStor=T MaxTD1= 6 Len=  172
 Calling FoFJK, ICntrl=    100147 FMM=F ISym2X=0 I1Cent= 0 IOpClX= 0 NMat=1 NMatS=1 NMatT=0.
 -------------------------------------------------------------------
 Center     Atomic                   Forces (Hartrees/Bohr)
 Number     Number              X              Y              Z
 -------------------------------------------------------------------
      1        6           0.000000520   -0.000000109    0.000000529
      2        6          -0.000000500    0.000000538   -0.000000426
      3        8           0.000000121   -0.000000387   -0.000000083
      4        6          -0.000000904    0.000000140    0.000000274
      5        1           0.000000253    0.000000042    0.000000233
      6        1           0.000000041   -0.000000147    0.000000119
      7        1           0.000000273    0.000000286   -0.000000004
      8        1           0.000000023   -0.000000017   -0.000000249
      9        1           0.000000190   -0.000000389   -0.000000228
     10        1          -0.000000016    0.000000043   -0.000000165
 -------------------------------------------------------------------
 Cartesian Forces:  Max     0.000000904 RMS     0.000000317
 FormGI is forming the generalized inverse of G from B-inverse, IUseBI=4.

 GradGradGradGradGradGradGradGradGradGradGradGradGradGradGradGradGradGrad
 Berny optimization.
 Internal  Forces:  Max     0.000000491 RMS     0.000000167
 Search for a local minimum.
 Step number   1 out of a maximum of   49
 All quantities printed in internal units (Hartrees-Bohrs-Radians)
 Mixed Optimization -- En-DIIS/RFO-DIIS
 Second derivative matrix not updated -- analytic derivatives used.
 ITU=  0
     Eigenvalues ---    0.00189   0.02454   0.02886   0.04481   0.04562
     Eigenvalues ---    0.05073   0.09062   0.09837   0.11257   0.12752
     Eigenvalues ---    0.12951   0.14377   0.15786   0.23251   0.26826
     Eigenvalues ---    0.29454   0.32743   0.34420   0.34647   0.34861
     Eigenvalues ---    0.35107   0.35223   0.35791   0.36858
 RFO step:  Lambda= 0.00000000D+00 EMin= 1.88769481D-03
 Linear search not attempted -- first point.
 Iteration  1 RMS(Cart)=  0.00000052 RMS(Int)=  0.00000000
 Variable       Old X    -DE/DX   Delta X   Delta X   Delta X     New X
                                 (Linear)    (Quad)   (Total)
    R1        2.76846  -0.00000   0.00000  -0.00000  -0.00000   2.76846
    R2        2.69045   0.00000   0.00000   0.00000   0.00000   2.69045
    R3        2.83994   0.00000   0.00000   0.00000   0.00000   2.83994
    R4        2.06255  -0.00000   0.00000  -0.00000  -0.00000   2.06255
    R5        2.68981   0.00000   0.00000   0.00000   0.00000   2.68981
    R6        2.05807   0.00000   0.00000   0.00000   0.00000   2.05807
    R7        2.05897  -0.00000   0.00000  -0.00000  -0.00000   2.05897
    R8        2.06654  -0.00000   0.00000  -0.00000  -0.00000   2.06654
    R9        2.06458   0.00000   0.00000   0.00000   0.00000   2.06458
   R10        2.06752  -0.00000   0.00000  -0.00000  -0.00000   2.06752
    A1        2.12931  -0.00000   0.00000  -0.00000  -0.00000   2.12931
    A2        2.04762   0.00000   0.00000   0.00000   0.00000   2.04762
    A3        2.03137  -0.00000   0.00000  -0.00000  -0.00000   2.03137
    A4        1.98478  -0.00000   0.00000   0.00000   0.00000   1.98478
    A5        2.01811   0.00000   0.00000  -0.00000  -0.00000   2.01811
    A6        2.09659  -0.00000   0.00000  -0.00000  -0.00000   2.09659
    A7        2.08099   0.00000   0.00000   0.00000   0.00000   2.08099
    A8        2.01769  -0.00000   0.00000  -0.00000  -0.00000   2.01769
    A9        2.01482   0.00000   0.00000  -0.00000  -0.00000   2.01482
   A10        2.01005   0.00000   0.00000   0.00000   0.00000   2.01005
   A11        1.93086  -0.00000   0.00000  -0.00000  -0.00000   1.93086
   A12        1.92647  -0.00000   0.00000  -0.00000  -0.00000   1.92647
   A13        1.93379   0.00000   0.00000   0.00000   0.00000   1.93379
   A14        1.88793   0.00000   0.00000  -0.00000  -0.00000   1.88793
   A15        1.88579  -0.00000   0.00000   0.00000   0.00000   1.88579
   A16        1.89773  -0.00000   0.00000   0.00000   0.00000   1.89773
    D1        2.66642   0.00000   0.00000   0.00000   0.00000   2.66642
    D2        0.00229  -0.00000   0.00000  -0.00000  -0.00000   0.00229
    D3       -0.01708   0.00000   0.00000   0.00000   0.00000  -0.01707
    D4       -2.68120  -0.00000   0.00000  -0.00000  -0.00000  -2.68120
    D5        2.52647   0.00000   0.00000   0.00000   0.00000   2.52647
    D6        0.43749   0.00000   0.00000   0.00000   0.00000   0.43749
    D7       -1.66565   0.00000   0.00000   0.00000   0.00000  -1.66565
    D8        1.33202  -0.00000   0.00000   0.00000   0.00000   1.33202
    D9       -0.75697  -0.00000   0.00000   0.00000   0.00000  -0.75697
   D10       -2.86011  -0.00000   0.00000   0.00000   0.00000  -2.86011
   D11       -1.06604  -0.00000   0.00000  -0.00000  -0.00000  -1.06604
   D12        3.12816   0.00000   0.00000   0.00000   0.00000   3.12816
   D13        1.02502  -0.00000   0.00000   0.00000   0.00000   1.02502
         Item               Value     Threshold  Converged?
 Maximum Force            0.000000     0.000015     YES
 RMS     Force            0.000000     0.000010     YES
 Maximum Displacement     0.000001     0.000060     YES
 RMS     Displacement     0.000001     0.000040     YES
 Predicted change in Energy=-2.071607D-12
 Optimization completed.
    -- Stationary point found.
                           ----------------------------
                           !   Optimized Parameters   !
                           ! (Angstroms and Degrees)  !
 --------------------------                            --------------------------
 ! Name  Definition              Value          Derivative Info.                !
 --------------------------------------------------------------------------------
 ! R1    R(1,2)                  1.465          -DE/DX =    0.0                 !
 ! R2    R(1,3)                  1.4237         -DE/DX =    0.0                 !
 ! R3    R(1,4)                  1.5028         -DE/DX =    0.0                 !
 ! R4    R(1,10)                 1.0915         -DE/DX =    0.0                 !
 ! R5    R(2,3)                  1.4234         -DE/DX =    0.0                 !
 ! R6    R(2,5)                  1.0891         -DE/DX =    0.0                 !
 ! R7    R(2,6)                  1.0896         -DE/DX =    0.0                 !
 ! R8    R(4,7)                  1.0936         -DE/DX =    0.0                 !
 ! R9    R(4,8)                  1.0925         -DE/DX =    0.0                 !
 ! R10   R(4,9)                  1.0941         -DE/DX =    0.0                 !
 ! A1    A(2,1,4)              122.0006         -DE/DX =    0.0                 !
 ! A2    A(2,1,10)             117.3202         -DE/DX =    0.0                 !
 ! A3    A(3,1,4)              116.3888         -DE/DX =    0.0                 !
 ! A4    A(3,1,10)             113.7192         -DE/DX =    0.0                 !
 ! A5    A(4,1,10)             115.6293         -DE/DX =    0.0                 !
 ! A6    A(1,2,5)              120.1259         -DE/DX =    0.0                 !
 ! A7    A(1,2,6)              119.232          -DE/DX =    0.0                 !
 ! A8    A(3,2,5)              115.6051         -DE/DX =    0.0                 !
 ! A9    A(3,2,6)              115.4409         -DE/DX =    0.0                 !
 ! A10   A(5,2,6)              115.1672         -DE/DX =    0.0                 !
 ! A11   A(1,4,7)              110.6304         -DE/DX =    0.0                 !
 ! A12   A(1,4,8)              110.3785         -DE/DX =    0.0                 !
 ! A13   A(1,4,9)              110.7981         -DE/DX =    0.0                 !
 ! A14   A(7,4,8)              108.1703         -DE/DX =    0.0                 !
 ! A15   A(7,4,9)              108.0477         -DE/DX =    0.0                 !
 ! A16   A(8,4,9)              108.7318         -DE/DX =    0.0                 !
 ! D1    D(4,1,2,5)            152.7743         -DE/DX =    0.0                 !
 ! D2    D(4,1,2,6)              0.1311         -DE/DX =    0.0                 !
 ! D3    D(10,1,2,5)            -0.9784         -DE/DX =    0.0                 !
 ! D4    D(10,1,2,6)          -153.6216         -DE/DX =    0.0                 !
 ! D5    D(2,1,4,7)            144.7562         -DE/DX =    0.0                 !
 ! D6    D(2,1,4,8)             25.0662         -DE/DX =    0.0                 !
 ! D7    D(2,1,4,9)            -95.4349         -DE/DX =    0.0                 !
 ! D8    D(3,1,4,7)             76.3191         -DE/DX =    0.0                 !
 ! D9    D(3,1,4,8)            -43.371          -DE/DX =    0.0                 !
 ! D10   D(3,1,4,9)           -163.872          -DE/DX =    0.0                 !
 ! D11   D(10,1,4,7)           -61.0795         -DE/DX =    0.0                 !
 ! D12   D(10,1,4,8)           179.2304         -DE/DX =    0.0                 !
 ! D13   D(10,1,4,9)            58.7294         -DE/DX =    0.0                 !
 --------------------------------------------------------------------------------
 GradGradGradGradGradGradGradGradGradGradGradGradGradGradGradGradGradGrad

                          Input orientation:                          
 ---------------------------------------------------------------------
 Center     Atomic      Atomic             Coordinates (Angstroms)
 Number     Number       Type             X           Y           Z
 ---------------------------------------------------------------------
      1          6           0       -0.149538   -0.045969    0.488147
      2          6           0        1.039368    0.613872   -0.057161
      3          8           0        0.821093   -0.779168   -0.251638
      4          6           0       -1.503468    0.100045   -0.147509
      5          1           0        1.869606    0.873201    0.598245
      6          1           0        0.942858    1.231797   -0.949346
      7          1           0       -2.072420   -0.829768   -0.060187
      8          1           0       -1.401751    0.338835   -1.208757
      9          1           0       -2.076936    0.895211    0.338155
     10          1           0       -0.151213   -0.272854    1.555756
 ---------------------------------------------------------------------
                    Distance matrix (angstroms):
                    1          2          3          4          5
     1  C    0.000000
     2  C    1.465008   0.000000
     3  O    1.423723   1.423385   0.000000
     4  C    1.502832   2.595804   2.487457   0.000000
     5  H    2.221247   1.089084   2.133543   3.539993   0.000000
     6  H    2.211877   1.089559   2.132042   2.812173   1.839155
     7  H    2.147670   3.430354   2.900281   1.093565   4.344330
     8  H    2.143734   2.713094   2.665904   1.092527   3.775259
     9  H    2.150158   3.153851   3.398525   1.094086   3.955164
    10  H    1.091453   2.192092   2.113860   2.206526   2.512763
                    6          7          8          9         10
     6  H    0.000000
     7  H    3.759329   0.000000
     8  H    2.522274   1.770492   0.000000
     9  H    3.300016   1.770381   1.777179   0.000000
    10  H    3.120337   2.571471   3.095245   2.560339   0.000000
 Symmetry turned off by external request.
 Stoichiometry    C3H6O
 Framework group  C1[X(C3H6O)]
 Deg. of freedom    24
 Full point group                 C1      NOp   1
 Rotational constants (GHZ):          18.2760130           6.6921362           5.9783079
 1\1\GINC-NODE5782\FOpt\RCAM-B3LYP\Gen\C3H6O1\X1711A05\22-Aug-2019\0\\#
  opt=(calcfc,tight) freq cam-b3lyp/gen nosymm pseudo=read scf=xqc\\PO_
 opt_freq_6_31G\\0,1\C,-0.149538,-0.045969,0.488147\C,1.039368,0.613872
 ,-0.057161\O,0.821093,-0.779168,-0.251638\C,-1.503468,0.100045,-0.1475
 09\H,1.869606,0.873201,0.598245\H,0.942858,1.231797,-0.949346\H,-2.072
 42,-0.829768,-0.060187\H,-1.401751,0.338835,-1.208757\H,-2.076936,0.89
 5211,0.338155\H,-0.151213,-0.272854,1.555756\\Version=ES64L-G16RevA.03
 \HF=-193.0136215\RMSD=5.496e-09\RMSF=3.168e-07\Dipole=-0.3383732,0.654
 8145,0.2761602\Polar=0.,0.,0.,0.,0.,0.\Quadrupole=0.4196133,-0.927708,
 0.5080946,1.6749227,0.3213099,-0.7820442\PG=C01 [X(C3H6O1)]\\@


 ONE OF THE BENEFITS OF A COLLEGE EDUCATION
 IS TO SHOW THE BOY ITS LITTLE AVAIL 
                                    EMERSON IN 'CULTURE'
 Job cpu time:       0 days  0 hours 23 minutes 15.8 seconds.
 Elapsed time:       0 days  0 hours  0 minutes 22.9 seconds.
 File lengths (MBytes):  RWF=     12 Int=      0 D2E=      0 Chk=      2 Scr=      1
 Normal termination of Gaussian 16 at Thu Aug 22 12:09:08 2019.
 Link1:  Proceeding to internal job step number  2.
 ----------------------------------------------------------------------
 #N Geom=AllCheck Guess=TCheck SCRF=Check GenChk RCAM-B3LYP/ChkBas Freq
 ----------------------------------------------------------------------
 1/7=10,10=4,29=7,30=1,38=1,40=1/1,3;
 2/12=2,15=1,40=1/2;
 3/5=7,6=2,11=2,14=-4,16=1,17=8,25=1,30=1,67=1,70=2,71=2,74=-40,82=7,116=1,140=1/1,2,3;
 4/5=101/1;
 5/5=2,8=3,13=1,38=6,98=1/2,8;
 8/6=4,10=90,11=11/1;
 11/6=1,8=1,9=11,15=111,16=1,31=1/1,2,10;
 10/6=1,31=1/2;
 6/7=2,8=2,9=2,10=2,28=1/1;
 7/8=1,10=1,25=1,30=1/1,2,3,16;
 1/7=10,10=4,30=1/3;
 99//99;
 Structure from the checkpoint file:  "PO_opt_freq_6_31G.chk"
 -----------------
 PO_opt_freq_6_31G
 -----------------
 Charge =  0 Multiplicity = 1
 Redundant internal coordinates found in file.  (old form).
 C,0,-0.149538,-0.045969,0.488147
 C,0,1.039368,0.613872,-0.057161
 O,0,0.821093,-0.779168,-0.251638
 C,0,-1.503468,0.100045,-0.147509
 H,0,1.869606,0.873201,0.598245
 H,0,0.942858,1.231797,-0.949346
 H,0,-2.07242,-0.829768,-0.060187
 H,0,-1.401751,0.338835,-1.208757
 H,0,-2.076936,0.895211,0.338155
 H,0,-0.151213,-0.272854,1.555756
 Recover connectivity data from disk.

 GradGradGradGradGradGradGradGradGradGradGradGradGradGradGradGradGradGrad
 Berny optimization.
 Initialization pass.
                           ----------------------------
                           !    Initial Parameters    !
                           ! (Angstroms and Degrees)  !
 --------------------------                            --------------------------
 ! Name  Definition              Value          Derivative Info.                !
 --------------------------------------------------------------------------------
 ! R1    R(1,2)                  1.465          calculate D2E/DX2 analytically  !
 ! R2    R(1,3)                  1.4237         calculate D2E/DX2 analytically  !
 ! R3    R(1,4)                  1.5028         calculate D2E/DX2 analytically  !
 ! R4    R(1,10)                 1.0915         calculate D2E/DX2 analytically  !
 ! R5    R(2,3)                  1.4234         calculate D2E/DX2 analytically  !
 ! R6    R(2,5)                  1.0891         calculate D2E/DX2 analytically  !
 ! R7    R(2,6)                  1.0896         calculate D2E/DX2 analytically  !
 ! R8    R(4,7)                  1.0936         calculate D2E/DX2 analytically  !
 ! R9    R(4,8)                  1.0925         calculate D2E/DX2 analytically  !
 ! R10   R(4,9)                  1.0941         calculate D2E/DX2 analytically  !
 ! A1    A(2,1,4)              122.0006         calculate D2E/DX2 analytically  !
 ! A2    A(2,1,10)             117.3202         calculate D2E/DX2 analytically  !
 ! A3    A(3,1,4)              116.3888         calculate D2E/DX2 analytically  !
 ! A4    A(3,1,10)             113.7192         calculate D2E/DX2 analytically  !
 ! A5    A(4,1,10)             115.6293         calculate D2E/DX2 analytically  !
 ! A6    A(1,2,5)              120.1259         calculate D2E/DX2 analytically  !
 ! A7    A(1,2,6)              119.232          calculate D2E/DX2 analytically  !
 ! A8    A(3,2,5)              115.6051         calculate D2E/DX2 analytically  !
 ! A9    A(3,2,6)              115.4409         calculate D2E/DX2 analytically  !
 ! A10   A(5,2,6)              115.1672         calculate D2E/DX2 analytically  !
 ! A11   A(1,4,7)              110.6304         calculate D2E/DX2 analytically  !
 ! A12   A(1,4,8)              110.3785         calculate D2E/DX2 analytically  !
 ! A13   A(1,4,9)              110.7981         calculate D2E/DX2 analytically  !
 ! A14   A(7,4,8)              108.1703         calculate D2E/DX2 analytically  !
 ! A15   A(7,4,9)              108.0477         calculate D2E/DX2 analytically  !
 ! A16   A(8,4,9)              108.7318         calculate D2E/DX2 analytically  !
 ! D1    D(4,1,2,5)            152.7743         calculate D2E/DX2 analytically  !
 ! D2    D(4,1,2,6)              0.1311         calculate D2E/DX2 analytically  !
 ! D3    D(10,1,2,5)            -0.9784         calculate D2E/DX2 analytically  !
 ! D4    D(10,1,2,6)          -153.6216         calculate D2E/DX2 analytically  !
 ! D5    D(2,1,4,7)            144.7562         calculate D2E/DX2 analytically  !
 ! D6    D(2,1,4,8)             25.0662         calculate D2E/DX2 analytically  !
 ! D7    D(2,1,4,9)            -95.4349         calculate D2E/DX2 analytically  !
 ! D8    D(3,1,4,7)             76.3191         calculate D2E/DX2 analytically  !
 ! D9    D(3,1,4,8)            -43.371          calculate D2E/DX2 analytically  !
 ! D10   D(3,1,4,9)           -163.872          calculate D2E/DX2 analytically  !
 ! D11   D(10,1,4,7)           -61.0795         calculate D2E/DX2 analytically  !
 ! D12   D(10,1,4,8)           179.2304         calculate D2E/DX2 analytically  !
 ! D13   D(10,1,4,9)            58.7294         calculate D2E/DX2 analytically  !
 --------------------------------------------------------------------------------
 Trust Radius=3.00D-01 FncErr=1.00D-07 GrdErr=1.00D-07 EigMax=2.50D+02 EigMin=1.00D-04
 Number of steps in this run=      2 maximum allowed number of steps=      2.
 GradGradGradGradGradGradGradGradGradGradGradGradGradGradGradGradGradGrad

                          Input orientation:                          
 ---------------------------------------------------------------------
 Center     Atomic      Atomic             Coordinates (Angstroms)
 Number     Number       Type             X           Y           Z
 ---------------------------------------------------------------------
      1          6           0       -0.149538   -0.045969    0.488147
      2          6           0        1.039368    0.613872   -0.057161
      3          8           0        0.821093   -0.779168   -0.251638
      4          6           0       -1.503468    0.100045   -0.147509
      5          1           0        1.869606    0.873201    0.598245
      6          1           0        0.942858    1.231797   -0.949346
      7          1           0       -2.072420   -0.829768   -0.060187
      8          1           0       -1.401751    0.338835   -1.208757
      9          1           0       -2.076936    0.895211    0.338155
     10          1           0       -0.151213   -0.272854    1.555756
 ---------------------------------------------------------------------
                    Distance matrix (angstroms):
                    1          2          3          4          5
     1  C    0.000000
     2  C    1.465008   0.000000
     3  O    1.423723   1.423385   0.000000
     4  C    1.502832   2.595804   2.487457   0.000000
     5  H    2.221247   1.089084   2.133543   3.539993   0.000000
     6  H    2.211877   1.089559   2.132042   2.812173   1.839155
     7  H    2.147670   3.430354   2.900281   1.093565   4.344330
     8  H    2.143734   2.713094   2.665904   1.092527   3.775259
     9  H    2.150158   3.153851   3.398525   1.094086   3.955164
    10  H    1.091453   2.192092   2.113860   2.206526   2.512763
                    6          7          8          9         10
     6  H    0.000000
     7  H    3.759329   0.000000
     8  H    2.522274   1.770492   0.000000
     9  H    3.300016   1.770381   1.777179   0.000000
    10  H    3.120337   2.571471   3.095245   2.560339   0.000000
 Symmetry turned off by external request.
 Stoichiometry    C3H6O
 Framework group  C1[X(C3H6O)]
 Deg. of freedom    24
 Full point group                 C1      NOp   1
 Rotational constants (GHZ):          18.2760130           6.6921362           5.9783079
 Basis read from chk: "PO_opt_freq_6_31G.chk" (5D, 7F)
 Pseudo-potential data read from chk file.
    86 basis functions,   154 primitive gaussians,    90 cartesian basis functions
    16 alpha electrons       16 beta electrons
       nuclear repulsion energy       125.0026902924 Hartrees.
 NAtoms=   10 NActive=   10 NUniq=   10 SFac= 1.00D+00 NAtFMM=   60 NAOKFM=F Big=F
 Integral buffers will be    131072 words long.
 Raffenetti 2 integral format.
 Two-electron integral symmetry is turned off.
 One-electron integrals computed using PRISM.
   1 Symmetry operations used in ECPInt.
 ECPInt:  NShTT=     595 NPrTT=    2865 LenC2=     596 LenP2D=    2401.
 LDataN:  DoStor=T MaxTD1= 4 Len=   56
 NBasis=    86 RedAO= T EigKep=  3.89D-03  NBF=    86
 NBsUse=    86 1.00D-06 EigRej= -1.00D+00 NBFU=    86
 Initial guess from the checkpoint file:  "PO_opt_freq_6_31G.chk"
 B after Tr=     0.000000    0.000000    0.000000
         Rot=    1.000000    0.000000    0.000000    0.000000 Ang=   0.00 deg.
 Keep R1 ints in memory in canonical form, NReq=72426534.
 Requested convergence on RMS density matrix=1.00D-08 within  32 cycles.
 Requested convergence on MAX density matrix=1.00D-06.
 Requested convergence on             energy=1.00D-06.
 No special actions if energy rises.
 SCF Done:  E(RCAM-B3LYP) =  -193.013621531     A.U. after    1 cycles
            NFock=  1  Conv=0.19D-08     -V/T= 2.0065
 QCSCF skips out because SCF is already converged.
 DoSCS=F DFT=T ScalE2(SS,OS)=  1.000000  1.000000
 Range of M.O.s used for correlation:     1    86
 NBasis=    86 NAE=    16 NBE=    16 NFC=     0 NFV=     0
 NROrb=     86 NOA=    16 NOB=    16 NVA=    70 NVB=    70
   1 Symmetry operations used in ECPInt.
 ECPInt:  NShTT=     595 NPrTT=    2865 LenC2=     596 LenP2D=    2401.
 LDataN:  DoStor=T MaxTD1= 5 Len=  102
 Symmetrizing basis deriv contribution to polar:
 IMax=3 JMax=2 DiffMx= 0.00D+00
 G2DrvN: will do    11 centers at a time, making    1 passes.
 Calling FoFCou, ICntrl=  3107 FMM=F I1Cent=   0 AccDes= 0.00D+00.
 End of G2Drv F.D. properties file   721 does not exist.
 End of G2Drv F.D. properties file   722 does not exist.
 End of G2Drv F.D. properties file   788 does not exist.
          IDoAtm=1111111111
          Differentiating once with respect to electric field.
                with respect to dipole field.
          Differentiating once with respect to nuclear coordinates.
 Keep R1 ints in memory in canonical form, NReq=72211412.
          There are    33 degrees of freedom in the 1st order CPHF.  IDoFFX=6 NUNeed=     3.
     30 vectors produced by pass  0 Test12= 3.39D-15 3.03D-09 XBig12= 1.43D+01 1.95D+00.
 AX will form    30 AO Fock derivatives at one time.
     30 vectors produced by pass  1 Test12= 3.39D-15 3.03D-09 XBig12= 1.37D+00 1.79D-01.
     30 vectors produced by pass  2 Test12= 3.39D-15 3.03D-09 XBig12= 2.52D-02 2.91D-02.
     30 vectors produced by pass  3 Test12= 3.39D-15 3.03D-09 XBig12= 1.22D-04 2.14D-03.
     30 vectors produced by pass  4 Test12= 3.39D-15 3.03D-09 XBig12= 4.21D-07 1.47D-04.
     30 vectors produced by pass  5 Test12= 3.39D-15 3.03D-09 XBig12= 1.14D-09 6.07D-06.
      9 vectors produced by pass  6 Test12= 3.39D-15 3.03D-09 XBig12= 2.85D-12 2.54D-07.
      3 vectors produced by pass  7 Test12= 3.39D-15 3.03D-09 XBig12= 6.99D-15 1.41D-08.
 InvSVY:  IOpt=1 It=  1 EMax= 1.78D-15
 Solved reduced A of dimension   192 with    33 vectors.
 Isotropic polarizability for W=    0.000000       33.28 Bohr**3.
 End of Minotr F.D. properties file   721 does not exist.
 End of Minotr F.D. properties file   722 does not exist.
 End of Minotr F.D. properties file   788 does not exist.

 **********************************************************************

            Population analysis using the SCF density.

 **********************************************************************

 Alpha  occ. eigenvalues --  -19.21889 -10.30889 -10.30128 -10.25113  -1.15045
 Alpha  occ. eigenvalues --   -0.82444  -0.73359  -0.66864  -0.57602  -0.53287
 Alpha  occ. eigenvalues --   -0.49170  -0.46693  -0.43616  -0.42810  -0.35806
 Alpha  occ. eigenvalues --   -0.32640
 Alpha virt. eigenvalues --    0.15728   0.16885   0.18250   0.18802   0.19956
 Alpha virt. eigenvalues --    0.22893   0.23304   0.23805   0.31593   0.37898
 Alpha virt. eigenvalues --    0.52944   0.57778   0.60094   0.63368   0.64909
 Alpha virt. eigenvalues --    0.68693   0.72157   0.75623   0.82714   0.85703
 Alpha virt. eigenvalues --    0.91586   0.92383   0.94054   0.97152   0.98951
 Alpha virt. eigenvalues --    1.01726   1.04870   1.09158   1.11470   1.32445
 Alpha virt. eigenvalues --    1.42332   1.45114   1.55336   1.62123   1.64554
 Alpha virt. eigenvalues --    1.73317   1.80543   1.88207   1.89957   1.96561
 Alpha virt. eigenvalues --    2.03123   2.10531   2.11554   2.12579   2.15320
 Alpha virt. eigenvalues --    2.16022   2.22559   2.27331   2.29592   2.38498
 Alpha virt. eigenvalues --    2.42980   2.44547   2.47076   2.57127   2.65438
 Alpha virt. eigenvalues --    2.74303   2.78104   2.80207   2.87148   2.90045
 Alpha virt. eigenvalues --    2.92795   2.97408   3.02439   3.11124   3.27009
 Alpha virt. eigenvalues --    3.36182   3.45915   3.52003   3.52437   3.61136
          Condensed to atoms (all electrons):
               1          2          3          4          5          6
     1  C    4.692259   0.329936   0.188570   0.391787  -0.018438  -0.019405
     2  C    0.329936   4.787688   0.191247  -0.029966   0.379381   0.382908
     3  O    0.188570   0.191247   8.197401  -0.036067  -0.028145  -0.031177
     4  C    0.391787  -0.029966  -0.036067   4.915986   0.000957  -0.001554
     5  H   -0.018438   0.379381  -0.028145   0.000957   0.610030  -0.048923
     6  H   -0.019405   0.382908  -0.031177  -0.001554  -0.048923   0.611153
     7  H   -0.029458   0.004463  -0.002392   0.385085  -0.000143   0.000105
     8  H   -0.030702  -0.004617   0.001527   0.384100   0.000146   0.002295
     9  H   -0.025467  -0.003002   0.003297   0.365743   0.000241  -0.000260
    10  H    0.386551  -0.027738  -0.030801  -0.053523  -0.000989   0.001314
               7          8          9         10
     1  C   -0.029458  -0.030702  -0.025467   0.386551
     2  C    0.004463  -0.004617  -0.003002  -0.027738
     3  O   -0.002392   0.001527   0.003297  -0.030801
     4  C    0.385085   0.384100   0.365743  -0.053523
     5  H   -0.000143   0.000146   0.000241  -0.000989
     6  H    0.000105   0.002295  -0.000260   0.001314
     7  H    0.586005  -0.028904  -0.031030  -0.003330
     8  H   -0.028904   0.582202  -0.025101   0.004848
     9  H   -0.031030  -0.025101   0.605987   0.001456
    10  H   -0.003330   0.004848   0.001456   0.621638
 Mulliken charges:
               1
     1  C    0.134366
     2  C   -0.010300
     3  O   -0.453460
     4  C   -0.322548
     5  H    0.105882
     6  H    0.103543
     7  H    0.119599
     8  H    0.114205
     9  H    0.108137
    10  H    0.100576
 Sum of Mulliken charges =  -0.00000
 Mulliken charges with hydrogens summed into heavy atoms:
               1
     1  C    0.234942
     2  C    0.199126
     3  O   -0.453460
     4  C    0.019393
 APT charges:
               1
     1  C    0.377259
     2  C    0.262633
     3  O   -0.546809
     4  C    0.017139
     5  H   -0.024186
     6  H   -0.018538
     7  H   -0.009410
     8  H   -0.000663
     9  H   -0.009598
    10  H   -0.047826
 Sum of APT charges =  -0.00000
 APT charges with hydrogens summed into heavy atoms:
               1
     1  C    0.329433
     2  C    0.219909
     3  O   -0.546809
     4  C   -0.002533
 Electronic spatial extent (au):  <R**2>=            265.8486
 Charge=             -0.0000 electrons
 Dipole moment (field-independent basis, Debye):
    X=             -0.8601    Y=              1.6644    Z=              0.7019  Tot=              2.0006
 Quadrupole moment (field-independent basis, Debye-Ang):
   XX=            -24.0886   YY=            -25.9008   ZZ=            -23.9696
   XY=              2.2528   XZ=              0.4322   YZ=             -1.0519
 Traceless Quadrupole moment (field-independent basis, Debye-Ang):
   XX=              0.5644   YY=             -1.2478   ZZ=              0.6834
   XY=              2.2528   XZ=              0.4322   YZ=             -1.0519
 Octapole moment (field-independent basis, Debye-Ang**2):
  XXX=              3.7939  YYY=             -1.8212  ZZZ=             -0.2246  XYY=             -0.3738
  XXY=              1.2621  XXZ=              0.8830  XZZ=              1.1971  YZZ=             -0.2698
  YYZ=             -0.2188  XYZ=             -0.4309
 Hexadecapole moment (field-independent basis, Debye-Ang**3):
 XXXX=           -213.0711 YYYY=            -72.4056 ZZZZ=            -53.6747 XXXY=              1.1580
 XXXZ=              0.0722 YYYX=             -0.0083 YYYZ=             -0.1072 ZZZX=             -0.1369
 ZZZY=             -1.2199 XXYY=            -46.5483 XXZZ=            -44.9834 YYZZ=            -21.2725
 XXYZ=              1.3288 YYXZ=             -0.8055 ZZXY=             -0.4557
 N-N= 1.250026902924D+02 E-N=-7.002930851571D+02  KE= 1.917737203379D+02
  Exact polarizability:  38.651   3.605  29.930  -0.867  -1.882  31.248
 Approx polarizability:  40.003   2.687  36.787  -2.395  -0.956  35.881
   1 Symmetry operations used in ECPInt.
 ECPInt:  NShTT=     595 NPrTT=    2865 LenC2=     596 LenP2D=    2401.
 LDataN:  DoStor=T MaxTD1= 6 Len=  172
 Calling FoFJK, ICntrl=    100127 FMM=F ISym2X=0 I1Cent= 0 IOpClX= 0 NMat=1 NMatS=1 NMatT=0.
 Full mass-weighted force constant matrix:
 Low frequencies ---   -3.2996    0.0009    0.0010    0.0011    2.9451    3.8314
 Low frequencies ---  210.2655  370.1269  413.8428
 Diagonal vibrational polarizability:
        2.2180160       1.7710170       1.1029856
 Harmonic frequencies (cm**-1), IR intensities (KM/Mole), Raman scattering
 activities (A**4/AMU), depolarization ratios for plane and unpolarized
 incident light, reduced masses (AMU), force constants (mDyne/A),
 and normal coordinates:
                      1                      2                      3
                      A                      A                      A
 Frequencies --    210.2654               370.1269               413.8428
 Red. masses --      1.0948                 2.3358                 2.3887
 Frc consts  --      0.0285                 0.1885                 0.2410
 IR Inten    --      0.5068                 3.7724                 4.6407
  Atom  AN      X      Y      Z        X      Y      Z        X      Y      Z
     1   6     0.00   0.05   0.00     0.00   0.17  -0.01     0.04  -0.00   0.20
     2   6     0.02  -0.02  -0.04     0.17  -0.03   0.07    -0.09   0.01  -0.03
     3   8    -0.02  -0.02   0.04    -0.14   0.05  -0.07    -0.15   0.02  -0.05
     4   6    -0.00  -0.01  -0.01    -0.03  -0.13   0.01     0.19  -0.02  -0.06
     5   1     0.04  -0.01  -0.06     0.18  -0.32   0.19     0.12  -0.04  -0.28
     6   1     0.04  -0.06  -0.07     0.43   0.09   0.13    -0.38   0.08   0.05
     7   1     0.27  -0.21  -0.46     0.24  -0.27   0.25     0.21  -0.05  -0.24
     8   1    -0.04   0.52   0.11    -0.11  -0.39  -0.06     0.60  -0.10  -0.03
     9   1    -0.25  -0.40   0.35    -0.25  -0.18  -0.18    -0.02  -0.01  -0.33
    10   1    -0.00   0.10   0.01     0.01   0.14  -0.01     0.10  -0.07   0.18
                      4                      5                      6
                      A                      A                      A
 Frequencies --    809.8275               885.3936               919.8234
 Red. masses --      2.8215                 2.8691                 1.2192
 Frc consts  --      1.0902                 1.3252                 0.6078
 IR Inten    --      5.6657                33.3082                 2.8956
  Atom  AN      X      Y      Z        X      Y      Z        X      Y      Z
     1   6     0.06  -0.03  -0.18    -0.04   0.20   0.04    -0.03  -0.04   0.03
     2   6    -0.10   0.15   0.05    -0.17  -0.12   0.04     0.00  -0.02  -0.06
     3   8    -0.15  -0.09   0.03     0.14  -0.12  -0.13    -0.01   0.06  -0.01
     4   6     0.21  -0.03   0.02     0.04   0.06   0.05    -0.01  -0.06   0.05
     5   1    -0.35   0.09   0.38    -0.53   0.11   0.42    -0.28  -0.03   0.31
     6   1     0.24   0.04  -0.04    -0.03   0.03   0.13     0.51  -0.10  -0.17
     7   1     0.21  -0.01   0.23     0.33  -0.10   0.08    -0.31   0.10  -0.29
     8   1    -0.12   0.04   0.01     0.14  -0.10   0.03     0.40   0.10   0.12
     9   1     0.45  -0.05   0.33    -0.27  -0.05  -0.14     0.11   0.11  -0.08
    10   1    -0.04   0.27  -0.11     0.10   0.31   0.05     0.24   0.21   0.08
                      7                      8                      9
                      A                      A                      A
 Frequencies --   1010.6070              1052.7973              1147.8179
 Red. masses --      2.7200                 1.1700                 1.4240
 Frc consts  --      1.6367                 0.7641                 1.1054
 IR Inten    --     13.6986                10.0091                 7.5573
  Atom  AN      X      Y      Z        X      Y      Z        X      Y      Z
     1   6     0.15  -0.05  -0.02     0.03   0.03   0.03     0.02   0.09   0.02
     2   6     0.03   0.22   0.06    -0.01   0.01   0.01     0.09  -0.02   0.08
     3   8    -0.03  -0.18  -0.01     0.02  -0.04  -0.02    -0.04  -0.03  -0.05
     4   6    -0.17   0.06   0.03    -0.03  -0.07  -0.05    -0.02  -0.08  -0.03
     5   1     0.07   0.15   0.01     0.14  -0.30  -0.07    -0.11   0.72   0.05
     6   1     0.05   0.10  -0.01    -0.18   0.38   0.28    -0.32  -0.32  -0.08
     7   1    -0.05  -0.05  -0.29    -0.33   0.12  -0.08    -0.31   0.10  -0.08
     8   1     0.28  -0.11   0.03    -0.12   0.16  -0.01    -0.02   0.16   0.03
     9   1    -0.53   0.05  -0.40     0.28   0.05   0.13     0.25   0.06   0.07
    10   1     0.43   0.10   0.02     0.06   0.57   0.15     0.05  -0.11  -0.02
                     10                     11                     12
                      A                      A                      A
 Frequencies --   1173.6789              1183.1490              1207.6001
 Red. masses --      1.3836                 1.7875                 1.6647
 Frc consts  --      1.1230                 1.4743                 1.4303
 IR Inten    --      1.2586                 4.9510                 3.4244
  Atom  AN      X      Y      Z        X      Y      Z        X      Y      Z
     1   6     0.02   0.01  -0.05    -0.10   0.12  -0.13    -0.04  -0.10  -0.14
     2   6     0.08  -0.06  -0.11    -0.02   0.04   0.03     0.05  -0.08   0.07
     3   8    -0.03   0.01   0.07     0.04  -0.05   0.01    -0.01   0.08   0.00
     4   6    -0.01   0.00   0.03     0.02  -0.07   0.12     0.01   0.04   0.07
     5   1    -0.34   0.11   0.35     0.32  -0.22  -0.29     0.11   0.18  -0.11
     6   1    -0.36   0.58   0.37    -0.05   0.08   0.05    -0.44  -0.18   0.06
     7   1     0.00  -0.01  -0.06    -0.13  -0.00  -0.21     0.18  -0.08  -0.07
     8   1     0.09  -0.02   0.03     0.56   0.06   0.20     0.24  -0.14   0.05
     9   1    -0.06   0.02  -0.07     0.17   0.15  -0.08    -0.14   0.01  -0.08
    10   1     0.09  -0.26  -0.11    -0.26  -0.29  -0.23     0.09   0.70   0.03
                     13                     14                     15
                      A                      A                      A
 Frequencies --   1316.9294              1424.4641              1473.2344
 Red. masses --      1.4645                 1.2661                 1.5340
 Frc consts  --      1.4965                 1.5137                 1.9617
 IR Inten    --      4.4179                 3.7312                18.9743
  Atom  AN      X      Y      Z        X      Y      Z        X      Y      Z
     1   6     0.07   0.06  -0.07    -0.07  -0.01   0.03     0.17   0.02   0.00
     2   6    -0.10  -0.07   0.06     0.02   0.01  -0.01    -0.03  -0.02  -0.00
     3   8    -0.01   0.05   0.05     0.00  -0.02  -0.00    -0.01   0.04   0.00
     4   6    -0.01  -0.01  -0.03    -0.10   0.03  -0.08    -0.12  -0.01   0.00
     5   1     0.05  -0.30  -0.05     0.04   0.16  -0.08    -0.15  -0.30   0.24
     6   1    -0.12  -0.20  -0.02     0.10   0.14   0.06    -0.22  -0.26  -0.13
     7   1    -0.03   0.01  -0.00     0.36  -0.21   0.30     0.29  -0.26  -0.14
     8   1    -0.09   0.07  -0.02     0.48  -0.07  -0.03     0.16   0.01   0.02
     9   1     0.06   0.03  -0.02     0.36   0.02   0.45     0.33   0.31   0.01
    10   1     0.84  -0.25  -0.16     0.29  -0.01   0.03    -0.49   0.01   0.01
                     16                     17                     18
                      A                      A                      A
 Frequencies --   1503.5355              1518.0221              1568.1536
 Red. masses --      1.0497                 1.0603                 1.6160
 Frc consts  --      1.3982                 1.4396                 2.3413
 IR Inten    --      4.2453                 5.2110                 8.5936
  Atom  AN      X      Y      Z        X      Y      Z        X      Y      Z
     1   6    -0.03  -0.03   0.00     0.04  -0.00  -0.02     0.15   0.01  -0.04
     2   6     0.00  -0.01  -0.00     0.00   0.01  -0.00    -0.11  -0.12   0.03
     3   8    -0.00  -0.00   0.00    -0.00   0.01   0.00    -0.02   0.04   0.02
     4   6    -0.01  -0.05   0.00    -0.00  -0.02  -0.04    -0.03   0.00  -0.00
     5   1     0.03   0.12  -0.08    -0.05  -0.17   0.12     0.07   0.47  -0.42
     6   1     0.10   0.09   0.05    -0.15  -0.12  -0.07     0.52   0.31   0.25
     7   1     0.28  -0.18   0.28    -0.24   0.19   0.58    -0.11   0.05   0.02
     8   1    -0.14   0.61   0.14     0.40   0.31   0.08     0.15  -0.04   0.01
     9   1     0.06   0.32  -0.49    -0.32  -0.29   0.05    -0.09  -0.07   0.05
    10   1     0.06   0.04   0.02    -0.14   0.01  -0.02    -0.25   0.02  -0.04
                     19                     20                     21
                      A                      A                      A
 Frequencies --   3074.8158              3118.5315              3133.7318
 Red. masses --      1.0363                 1.0513                 1.0900
 Frc consts  --      5.7724                 6.0237                 6.3069
 IR Inten    --     14.0027                23.4447                16.2312
  Atom  AN      X      Y      Z        X      Y      Z        X      Y      Z
     1   6     0.00   0.00  -0.00    -0.01   0.00  -0.01    -0.00   0.02  -0.08
     2   6    -0.00  -0.00   0.00     0.04   0.04  -0.02    -0.00  -0.01   0.01
     3   8    -0.00   0.00  -0.00     0.00   0.00  -0.00     0.00   0.00   0.00
     4   6    -0.05   0.01  -0.02    -0.00  -0.00   0.00    -0.01  -0.00   0.02
     5   1     0.00   0.00   0.00    -0.51  -0.15  -0.42     0.05   0.01   0.03
     6   1    -0.00   0.01  -0.01     0.08  -0.39   0.59    -0.02   0.09  -0.14
     7   1     0.29   0.50  -0.05     0.01   0.02  -0.00     0.03   0.06  -0.00
     8   1    -0.06  -0.11   0.50     0.00   0.01  -0.03     0.03   0.06  -0.24
     9   1     0.32  -0.46  -0.28     0.01  -0.01  -0.01     0.04  -0.06  -0.04
    10   1    -0.00  -0.01   0.04     0.00  -0.03   0.15     0.01  -0.20   0.92
                     22                     23                     24
                      A                      A                      A
 Frequencies --   3148.3382              3164.4995              3206.5490
 Red. masses --      1.1028                 1.1032                 1.1205
 Frc consts  --      6.4406                 6.5093                 6.7879
 IR Inten    --     18.0918                24.6380                30.8354
  Atom  AN      X      Y      Z        X      Y      Z        X      Y      Z
     1   6    -0.00  -0.00  -0.00     0.00   0.01  -0.02    -0.00   0.00  -0.01
     2   6     0.00  -0.00   0.00     0.00  -0.00   0.01    -0.05   0.02  -0.08
     3   8    -0.00   0.00   0.00     0.00   0.00   0.00     0.00  -0.00   0.00
     4   6    -0.00  -0.09  -0.02     0.04   0.02  -0.08     0.00   0.00  -0.00
     5   1     0.00   0.00   0.00    -0.03  -0.01  -0.03     0.56   0.16   0.43
     6   1     0.00   0.00  -0.00    -0.01   0.03  -0.04     0.06  -0.38   0.56
     7   1     0.38   0.61  -0.07    -0.18  -0.31   0.02    -0.01  -0.01   0.00
     8   1    -0.00  -0.02   0.02    -0.08  -0.18   0.79    -0.00  -0.01   0.04
     9   1    -0.37   0.49   0.31    -0.18   0.26   0.15    -0.01   0.01   0.01
    10   1     0.00  -0.00   0.01     0.01  -0.06   0.26    -0.00  -0.02   0.09

 -------------------
 - Thermochemistry -
 -------------------
 Temperature   298.150 Kelvin.  Pressure   1.00000 Atm.
 Atom     1 has atomic number  6 and mass  12.00000
 Atom     2 has atomic number  6 and mass  12.00000
 Atom     3 has atomic number  8 and mass  15.99491
 Atom     4 has atomic number  6 and mass  12.00000
 Atom     5 has atomic number  1 and mass   1.00783
 Atom     6 has atomic number  1 and mass   1.00783
 Atom     7 has atomic number  1 and mass   1.00783
 Atom     8 has atomic number  1 and mass   1.00783
 Atom     9 has atomic number  1 and mass   1.00783
 Atom    10 has atomic number  1 and mass   1.00783
 Molecular mass:    58.04186 amu.
 Principal axes and moments of inertia in atomic units:
                           1         2         3
     Eigenvalues --    98.74917 269.68088 301.88161
           X            0.99895   0.04332   0.01512
           Y           -0.04119   0.99186  -0.12049
           Z           -0.02021   0.11974   0.99260
 This molecule is an asymmetric top.
 Rotational symmetry number  1.
 Rotational temperatures (Kelvin)      0.87711     0.32117     0.28691
 Rotational constants (GHZ):          18.27601     6.69214     5.97831
 Zero-point vibrational energy     227504.2 (Joules/Mol)
                                   54.37481 (Kcal/Mol)
 Warning -- explicit consideration of   3 degrees of freedom as
           vibrations may cause significant error
 Vibrational temperatures:    302.53   532.53   595.43  1165.16  1273.88
          (Kelvin)           1323.42  1454.04  1514.74  1651.45  1688.66
                             1702.29  1737.47  1894.77  2049.49  2119.66
                             2163.25  2184.10  2256.22  4423.97  4486.87
                             4508.74  4529.76  4553.01  4613.51
 
 Zero-point correction=                           0.086652 (Hartree/Particle)
 Thermal correction to Energy=                    0.091022
 Thermal correction to Enthalpy=                  0.091966
 Thermal correction to Gibbs Free Energy=         0.060303
 Sum of electronic and zero-point Energies=           -192.926970
 Sum of electronic and thermal Energies=              -192.922599
 Sum of electronic and thermal Enthalpies=            -192.921655
 Sum of electronic and thermal Free Energies=         -192.953318
 
                     E (Thermal)             CV                S
                      KCal/Mol        Cal/Mol-Kelvin    Cal/Mol-Kelvin
 Total                   57.117             14.481             66.641
 Electronic               0.000              0.000              0.000
 Translational            0.889              2.981             38.096
 Rotational               0.889              2.981             23.601
 Vibrational             55.340              8.520              4.943
 Vibration     1          0.642              1.825              2.041
 Vibration     2          0.742              1.534              1.079
 Vibration     3          0.777              1.440              0.913
                       Q            Log10(Q)             Ln(Q)
 Total Bot       0.183014D-27        -27.737516        -63.867991
 Total V=0       0.131674D+13         12.119500         27.906181
 Vib (Bot)       0.328067D-39        -39.484038        -90.915356
 Vib (Bot)    1  0.944496D+00         -0.024800         -0.057104
 Vib (Bot)    2  0.491840D+00         -0.308177         -0.709603
 Vib (Bot)    3  0.426278D+00         -0.370308         -0.852665
 Vib (V=0)       0.236036D+01          0.372979          0.858815
 Vib (V=0)    1  0.156868D+01          0.195534          0.450233
 Vib (V=0)    2  0.120136D+01          0.079673          0.183454
 Vib (V=0)    3  0.115705D+01          0.063352          0.145872
 Electronic      0.100000D+01          0.000000          0.000000
 Translational   0.173806D+08          7.240066         16.670868
 Rotational      0.320964D+05          4.506456         10.376498
 -------------------------------------------------------------------
 Center     Atomic                   Forces (Hartrees/Bohr)
 Number     Number              X              Y              Z
 -------------------------------------------------------------------
      1        6           0.000000514   -0.000000095    0.000000527
      2        6          -0.000000505    0.000000559   -0.000000406
      3        8           0.000000117   -0.000000405   -0.000000085
      4        6          -0.000000885    0.000000134    0.000000279
      5        1           0.000000248    0.000000038    0.000000228
      6        1           0.000000044   -0.000000155    0.000000120
      7        1           0.000000272    0.000000289   -0.000000005
      8        1           0.000000021   -0.000000017   -0.000000248
      9        1           0.000000188   -0.000000388   -0.000000229
     10        1          -0.000000013    0.000000040   -0.000000180
 -------------------------------------------------------------------
 Cartesian Forces:  Max     0.000000885 RMS     0.000000316
 FormGI is forming the generalized inverse of G from B-inverse, IUseBI=4.

 GradGradGradGradGradGradGradGradGradGradGradGradGradGradGradGradGradGrad
 Berny optimization.
 Internal  Forces:  Max     0.000000476 RMS     0.000000167
 Search for a local minimum.
 Step number   1 out of a maximum of    2
 All quantities printed in internal units (Hartrees-Bohrs-Radians)
 Second derivative matrix not updated -- analytic derivatives used.
 ITU=  0
     Eigenvalues ---    0.00189   0.02454   0.02886   0.04481   0.04562
     Eigenvalues ---    0.05073   0.09062   0.09837   0.11257   0.12752
     Eigenvalues ---    0.12951   0.14377   0.15786   0.23251   0.26826
     Eigenvalues ---    0.29454   0.32743   0.34420   0.34647   0.34861
     Eigenvalues ---    0.35107   0.35223   0.35791   0.36858
 Angle between quadratic step and forces=  42.68 degrees.
 Linear search not attempted -- first point.
 Iteration  1 RMS(Cart)=  0.00000053 RMS(Int)=  0.00000000
 Variable       Old X    -DE/DX   Delta X   Delta X   Delta X     New X
                                 (Linear)    (Quad)   (Total)
    R1        2.76846  -0.00000   0.00000  -0.00000  -0.00000   2.76846
    R2        2.69045   0.00000   0.00000   0.00000   0.00000   2.69045
    R3        2.83994   0.00000   0.00000   0.00000   0.00000   2.83994
    R4        2.06255  -0.00000   0.00000  -0.00000  -0.00000   2.06255
    R5        2.68981   0.00000   0.00000   0.00000   0.00000   2.68981
    R6        2.05807   0.00000   0.00000   0.00000   0.00000   2.05807
    R7        2.05897  -0.00000   0.00000  -0.00000  -0.00000   2.05897
    R8        2.06654  -0.00000   0.00000  -0.00000  -0.00000   2.06654
    R9        2.06458   0.00000   0.00000   0.00000   0.00000   2.06458
   R10        2.06752  -0.00000   0.00000  -0.00000  -0.00000   2.06752
    A1        2.12931  -0.00000   0.00000  -0.00000  -0.00000   2.12931
    A2        2.04762   0.00000   0.00000   0.00000   0.00000   2.04762
    A3        2.03137  -0.00000   0.00000  -0.00000  -0.00000   2.03137
    A4        1.98478  -0.00000   0.00000   0.00000   0.00000   1.98478
    A5        2.01811   0.00000   0.00000  -0.00000  -0.00000   2.01811
    A6        2.09659  -0.00000   0.00000  -0.00000  -0.00000   2.09659
    A7        2.08099   0.00000   0.00000   0.00000   0.00000   2.08099
    A8        2.01769  -0.00000   0.00000  -0.00000  -0.00000   2.01769
    A9        2.01482   0.00000   0.00000  -0.00000  -0.00000   2.01482
   A10        2.01005   0.00000   0.00000   0.00000   0.00000   2.01005
   A11        1.93086  -0.00000   0.00000  -0.00000  -0.00000   1.93086
   A12        1.92647  -0.00000   0.00000  -0.00000  -0.00000   1.92647
   A13        1.93379   0.00000   0.00000   0.00000   0.00000   1.93379
   A14        1.88793   0.00000   0.00000  -0.00000  -0.00000   1.88793
   A15        1.88579  -0.00000   0.00000   0.00000   0.00000   1.88579
   A16        1.89773  -0.00000   0.00000   0.00000   0.00000   1.89773
    D1        2.66642   0.00000   0.00000   0.00000   0.00000   2.66642
    D2        0.00229  -0.00000   0.00000  -0.00000  -0.00000   0.00229
    D3       -0.01708   0.00000   0.00000   0.00000   0.00000  -0.01707
    D4       -2.68120  -0.00000   0.00000  -0.00000  -0.00000  -2.68120
    D5        2.52647   0.00000   0.00000   0.00000   0.00000   2.52647
    D6        0.43749   0.00000   0.00000   0.00000   0.00000   0.43749
    D7       -1.66565   0.00000   0.00000   0.00000   0.00000  -1.66565
    D8        1.33202  -0.00000   0.00000  -0.00000  -0.00000   1.33202
    D9       -0.75697  -0.00000   0.00000   0.00000   0.00000  -0.75697
   D10       -2.86011  -0.00000   0.00000   0.00000   0.00000  -2.86011
   D11       -1.06604  -0.00000   0.00000  -0.00000  -0.00000  -1.06604
   D12        3.12816   0.00000   0.00000   0.00000   0.00000   3.12816
   D13        1.02502  -0.00000   0.00000   0.00000   0.00000   1.02502
         Item               Value     Threshold  Converged?
 Maximum Force            0.000000     0.000015     YES
 RMS     Force            0.000000     0.000010     YES
 Maximum Displacement     0.000001     0.000060     YES
 RMS     Displacement     0.000001     0.000040     YES
 Predicted change in Energy=-2.080418D-12
 Optimization completed.
    -- Stationary point found.
                           ----------------------------
                           !   Optimized Parameters   !
                           ! (Angstroms and Degrees)  !
 --------------------------                            --------------------------
 ! Name  Definition              Value          Derivative Info.                !
 --------------------------------------------------------------------------------
 ! R1    R(1,2)                  1.465          -DE/DX =    0.0                 !
 ! R2    R(1,3)                  1.4237         -DE/DX =    0.0                 !
 ! R3    R(1,4)                  1.5028         -DE/DX =    0.0                 !
 ! R4    R(1,10)                 1.0915         -DE/DX =    0.0                 !
 ! R5    R(2,3)                  1.4234         -DE/DX =    0.0                 !
 ! R6    R(2,5)                  1.0891         -DE/DX =    0.0                 !
 ! R7    R(2,6)                  1.0896         -DE/DX =    0.0                 !
 ! R8    R(4,7)                  1.0936         -DE/DX =    0.0                 !
 ! R9    R(4,8)                  1.0925         -DE/DX =    0.0                 !
 ! R10   R(4,9)                  1.0941         -DE/DX =    0.0                 !
 ! A1    A(2,1,4)              122.0006         -DE/DX =    0.0                 !
 ! A2    A(2,1,10)             117.3202         -DE/DX =    0.0                 !
 ! A3    A(3,1,4)              116.3888         -DE/DX =    0.0                 !
 ! A4    A(3,1,10)             113.7192         -DE/DX =    0.0                 !
 ! A5    A(4,1,10)             115.6293         -DE/DX =    0.0                 !
 ! A6    A(1,2,5)              120.1259         -DE/DX =    0.0                 !
 ! A7    A(1,2,6)              119.232          -DE/DX =    0.0                 !
 ! A8    A(3,2,5)              115.6051         -DE/DX =    0.0                 !
 ! A9    A(3,2,6)              115.4409         -DE/DX =    0.0                 !
 ! A10   A(5,2,6)              115.1672         -DE/DX =    0.0                 !
 ! A11   A(1,4,7)              110.6304         -DE/DX =    0.0                 !
 ! A12   A(1,4,8)              110.3785         -DE/DX =    0.0                 !
 ! A13   A(1,4,9)              110.7981         -DE/DX =    0.0                 !
 ! A14   A(7,4,8)              108.1703         -DE/DX =    0.0                 !
 ! A15   A(7,4,9)              108.0477         -DE/DX =    0.0                 !
 ! A16   A(8,4,9)              108.7318         -DE/DX =    0.0                 !
 ! D1    D(4,1,2,5)            152.7743         -DE/DX =    0.0                 !
 ! D2    D(4,1,2,6)              0.1311         -DE/DX =    0.0                 !
 ! D3    D(10,1,2,5)            -0.9784         -DE/DX =    0.0                 !
 ! D4    D(10,1,2,6)          -153.6216         -DE/DX =    0.0                 !
 ! D5    D(2,1,4,7)            144.7562         -DE/DX =    0.0                 !
 ! D6    D(2,1,4,8)             25.0662         -DE/DX =    0.0                 !
 ! D7    D(2,1,4,9)            -95.4349         -DE/DX =    0.0                 !
 ! D8    D(3,1,4,7)             76.3191         -DE/DX =    0.0                 !
 ! D9    D(3,1,4,8)            -43.371          -DE/DX =    0.0                 !
 ! D10   D(3,1,4,9)           -163.872          -DE/DX =    0.0                 !
 ! D11   D(10,1,4,7)           -61.0795         -DE/DX =    0.0                 !
 ! D12   D(10,1,4,8)           179.2304         -DE/DX =    0.0                 !
 ! D13   D(10,1,4,9)            58.7294         -DE/DX =    0.0                 !
 --------------------------------------------------------------------------------
 GradGradGradGradGradGradGradGradGradGradGradGradGradGradGradGradGradGrad


 ----------------------------------------------------------------------

 Electric dipole moment (input orientation):
 (Debye = 10**-18 statcoulomb cm , SI units = C m)
                  (au)            (Debye)         (10**-30 SI)
   Tot        0.787111D+00      0.200064D+01      0.667340D+01
   x         -0.338373D+00     -0.860059D+00     -0.286885D+01
   y          0.654815D+00      0.166437D+01      0.555175D+01
   z          0.276160D+00      0.701930D+00      0.234138D+01

 Dipole polarizability, Alpha (input orientation).
 (esu units = cm**3 , SI units = C**2 m**2 J**-1)
 Alpha(0;0):
               (au)            (10**-24 esu)      (10**-40 SI)
   iso        0.332761D+02      0.493101D+01      0.548649D+01
   aniso      0.108704D+02      0.161082D+01      0.179228D+01
   xx         0.386508D+02      0.572745D+01      0.637265D+01
   yx         0.360480D+01      0.534176D+00      0.594351D+00
   yy         0.299297D+02      0.443512D+01      0.493474D+01
   zx        -0.867076D+00     -0.128487D+00     -0.142962D+00
   zy        -0.188219D+01     -0.278913D+00     -0.310332D+00
   zz         0.312480D+02      0.463047D+01      0.515210D+01

 ----------------------------------------------------------------------

 Dipole orientation:
     6          0.12963653         -0.88459511          0.37286314
     6          1.95609875          1.17557422          0.08281073
     8          0.74511752          0.08835720         -2.05881314
     6         -2.52223143         -0.42809453          1.28086733
     1          3.97256143          0.79956218          0.25057951
     1          1.38302897          3.09934485          0.54112278
     1         -3.84455368         -1.70688864          0.33920509
     1         -3.09898005          1.51124385          0.87001232
     1         -2.66530219         -0.74573453          3.31882857
     1          0.88069692         -2.77291127          0.72537940

 Electric dipole moment (dipole orientation):
 (Debye = 10**-18 statcoulomb cm , SI units = C m)
                  (au)            (Debye)         (10**-30 SI)
   Tot        0.787111D+00      0.200064D+01      0.667340D+01
   x          0.000000D+00      0.000000D+00      0.000000D+00
   y          0.000000D+00      0.000000D+00      0.000000D+00
   z          0.787111D+00      0.200064D+01      0.667340D+01

 Dipole polarizability, Alpha (dipole orientation).
 (esu units = cm**3 , SI units = C**2 m**2 J**-1)
 Alpha(0;0):
               (au)            (10**-24 esu)      (10**-40 SI)
   iso        0.332761D+02      0.493101D+01      0.548649D+01
   aniso      0.108704D+02      0.161082D+01      0.179228D+01
   xx         0.372470D+02      0.551944D+01      0.614121D+01
   yx         0.383557D+01      0.568373D+00      0.632401D+00
   yy         0.342933D+02      0.508174D+01      0.565420D+01
   zx        -0.180935D+01     -0.268118D+00     -0.298322D+00
   zy        -0.749153D+00     -0.111013D+00     -0.123519D+00
   zz         0.282881D+02      0.419186D+01      0.466407D+01

 ----------------------------------------------------------------------
 1\1\GINC-NODE5782\Freq\RCAM-B3LYP\Gen\C3H6O1\X1711A05\22-Aug-2019\0\\#
 N Geom=AllCheck Guess=TCheck SCRF=Check GenChk RCAM-B3LYP/ChkBas Freq\
 \PO_opt_freq_6_31G\\0,1\C,-0.149538,-0.045969,0.488147\C,1.039368,0.61
 3872,-0.057161\O,0.821093,-0.779168,-0.251638\C,-1.503468,0.100045,-0.
 147509\H,1.869606,0.873201,0.598245\H,0.942858,1.231797,-0.949346\H,-2
 .07242,-0.829768,-0.060187\H,-1.401751,0.338835,-1.208757\H,-2.076936,
 0.895211,0.338155\H,-0.151213,-0.272854,1.555756\\Version=ES64L-G16Rev
 A.03\HF=-193.0136215\RMSD=1.901e-09\RMSF=3.160e-07\ZeroPoint=0.0866518
 \Thermal=0.0910222\Dipole=-0.3383732,0.6548146,0.2761603\DipoleDeriv=0
 .4882065,-0.0631824,-0.0185639,-0.1290834,0.2635497,0.0490824,0.021015
 4,-0.0052179,0.3800206,0.1586068,-0.0215489,0.0786013,0.0694168,0.3602
 367,-0.0301418,0.0882458,0.0266112,0.269056,-0.5086354,0.1489834,0.049
 6619,0.1629693,-0.7101337,-0.1582109,0.0522644,-0.1589551,-0.4216567,-
 0.0412311,0.0289181,-0.035078,-0.0131103,0.0930708,0.0237699,-0.060423
 9,0.0376099,-0.0004231,-0.0684056,-0.0732437,-0.0784143,-0.0507946,0.0
 115447,0.0075222,-0.0885632,-0.0140457,-0.0156976,0.0357855,-0.0090007
 ,-0.0527833,-0.0353769,-0.0304239,0.0664704,-0.0219701,0.0937296,-0.06
 09768,-0.0317759,-0.0674267,0.0003737,-0.096616,-0.0686723,0.0117545,-
 0.0206025,0.0227917,0.0722188,0.036267,-0.0103941,0.0395238,-0.0018692
 ,0.0584654,0.0416888,-0.0125346,0.0415874,-0.0967227,-0.023026,0.05511
 22,0.027948,0.088143,-0.0306679,-0.0639534,0.035595,-0.0739047,0.02489
 91,-0.0457918,0.0117828,-0.0112691,0.0063212,0.0530305,0.0520179,0.006
 9736,0.0297937,-0.1507177\Polar=38.6507522,3.6047977,29.9296687,-0.867
 0762,-1.8821949,31.2479786\Quadrupole=0.4196129,-0.9277077,0.5080948,1
 .6749229,0.32131,-0.7820442\PG=C01 [X(C3H6O1)]\NImag=0\\0.63931938,0.0
 3104056,0.30246140,-0.04483024,-0.09071601,0.64782286,-0.21990905,-0.0
 8711373,0.07509510,0.54710779,-0.13300854,-0.05461008,0.08245479,0.167
 93738,0.48706557,0.06582084,0.05839972,-0.08917939,0.11037725,-0.13972
 229,0.56147103,-0.13055998,0.06281861,0.05331664,-0.03578011,-0.003895
 41,-0.01811695,0.19152311,0.09683256,-0.09652497,-0.06600502,-0.039746
 55,-0.24903672,-0.02026059,-0.05577843,0.38075619,0.06585651,-0.048501
 86,-0.11850233,-0.02690232,-0.03906226,-0.05897689,-0.06646493,0.09931
 502,0.16238229,-0.19923933,0.00743091,-0.06413279,-0.01787379,0.004787
 87,-0.00539344,-0.02356268,0.00539637,0.00098950,0.53005165,0.00113999
 ,-0.07843774,0.00979050,-0.02290812,0.00000348,-0.01838564,0.03419983,
 -0.00149075,0.01003510,0.00697698,0.57940266,-0.07120863,0.00965455,-0
 .12486032,0.00498648,-0.00323013,0.00169864,0.02179059,-0.00239264,0.0
 0956341,-0.03187664,0.00123274,0.58693405,-0.01299396,-0.00220728,-0.0
 1891833,-0.21508668,-0.04569758,-0.13555002,0.00640171,-0.00602162,0.0
 0787009,-0.00057107,-0.00371199,0.00094494,0.22200247,0.00186912,-0.00
 807276,0.00107285,-0.03940113,-0.05633361,-0.02652121,-0.03190326,-0.0
 1535346,-0.01777462,0.00062106,0.00154795,0.00015296,0.05696840,0.0701
 2135,0.01378345,0.00166901,0.01256908,-0.13489838,-0.02636349,-0.16002
 022,-0.00560736,-0.00664717,-0.00090023,0.00055810,0.00303602,-0.00076
 574,0.14418164,0.03481510,0.15943605,0.00515175,-0.01489251,0.02343099
 ,-0.05544008,0.01070338,-0.03114771,-0.00051655,0.00084579,-0.00224734
 ,0.00154763,0.00131353,0.00092936,0.00040344,0.01255497,-0.01863043,0.
 05051663,0.00056187,-0.00532974,-0.00573918,0.01323785,-0.12186451,0.1
 2377993,-0.00595430,-0.02739404,0.02614165,-0.00012437,0.00027579,0.00
 105386,-0.00040004,0.00741292,-0.00507850,-0.00753056,0.14570775,-0.00
 505380,0.00550861,-0.01211621,-0.02969260,0.12935695,-0.25110922,0.004
 19995,-0.00504332,0.01697207,-0.00117500,-0.00090961,0.00069339,0.0012
 2094,0.00887250,-0.01099656,0.02931449,-0.13942488,0.25485780,-0.01899
 657,-0.02833916,0.00445010,-0.00362252,-0.00044906,-0.00535795,0.00350
 301,0.00185851,0.00118178,-0.11894284,-0.11840959,0.01187555,-0.001252
 79,0.00056101,0.00105871,0.00041358,0.00000723,-0.00018739,0.12944048,
 0.00326356,0.00529589,-0.00092409,0.00225284,0.00066399,-0.00003894,-0
 .00216791,0.00110277,0.00034635,-0.11939795,-0.24840735,0.02030039,0.0
 0024516,0.00011441,-0.00010040,0.00012463,-0.00000502,-0.00008821,0.13
 039467,0.26490436,-0.00876497,-0.01478355,0.00186258,-0.00102230,0.000
 49552,-0.00180043,0.00124643,0.00125457,0.00062126,0.01165703,0.020592
 83,-0.05235825,-0.00036798,-0.00013957,0.00054216,-0.00032115,-0.00020
 041,0.00025914,-0.01061129,-0.02212214,0.05036635,0.00196934,0.0069660
 2,-0.03332683,0.00142717,-0.00054533,-0.00187493,0.00321735,-0.0000670
 8,0.00207628,-0.05216281,-0.00678052,0.03003882,0.00015300,-0.00011405
 ,0.00016759,-0.00024162,-0.00039006,0.00049089,-0.00180045,-0.00193706
 ,0.01623061,0.05479114,0.00023830,-0.00198673,0.00246253,-0.00015782,0
 .00126489,-0.00079468,-0.00061301,-0.00066873,0.00005688,-0.00698937,-
 0.06210173,0.05879492,-0.00003835,-0.00008075,0.00006757,-0.00005008,-
 0.00020320,-0.00012798,-0.00173381,-0.00487713,0.02780391,0.00793804,0
 .06092504,0.00220171,0.00251568,-0.01603524,0.00108380,-0.00020929,0.0
 0016381,0.00063046,0.00018120,0.00240378,0.02633144,0.05885902,-0.3075
 2934,0.00014664,-0.00031755,0.00021626,-0.00080056,-0.00019369,0.00057
 140,0.00014652,-0.00004856,-0.00056010,-0.02766629,-0.06438554,0.33157
 430,-0.01186529,0.02174967,0.01777471,0.00126410,0.00090667,0.00143791
 ,-0.00780634,0.00053282,-0.00366743,-0.12163277,0.10210190,0.06106666,
 -0.00001766,-0.00023140,-0.00012416,-0.00025579,-0.00031293,0.00009973
 ,0.01033891,-0.01223656,-0.00871445,-0.00189643,0.00094675,0.00057138,
 0.13090272,-0.00026613,-0.00177306,-0.00092578,0.00089357,0.00022493,0
 .00027219,-0.00073327,0.00124109,0.00066505,0.10297454,-0.19252402,-0.
 08818618,0.00017539,0.00009943,-0.00009387,0.00003177,0.00005768,0.000
 04196,0.01542998,-0.01896343,-0.01267468,-0.00577889,0.00685903,0.0033
 8576,-0.11295909,0.20472788,-0.00607007,0.01204111,0.00768911,0.000779
 60,-0.00018458,0.00015485,-0.00347230,0.00075289,0.00033688,0.06209810
 ,-0.08822080,-0.10449859,-0.00002706,-0.00009905,-0.00006539,-0.000013
 77,-0.00028002,0.00002900,-0.00255011,0.00308191,0.00084870,0.01586583
 ,-0.02397813,-0.01115452,-0.06762691,0.09714807,0.10679836,-0.05287629
 ,0.00254690,-0.01285936,-0.00208681,-0.00073939,0.01980500,-0.00641953
 ,-0.00385238,0.02130785,0.00238602,0.00607799,-0.02854712,0.00096155,-
 0.00092472,-0.00048915,-0.00157897,0.00090531,0.00078280,0.00091920,-0
 .00054140,0.00066807,-0.00545670,0.00045934,-0.00264511,0.00096856,0.0
 0023212,0.00101668,0.06318296,-0.00167130,-0.06102219,0.06852941,0.005
 00569,-0.00737793,0.02327150,0.00402716,0.00736862,-0.03122131,-0.0016
 7604,0.00173170,0.00261954,0.00068791,0.00054452,-0.00130427,-0.003100
 94,0.00134237,0.00181398,0.00068021,0.00017152,-0.00022648,0.00070892,
 0.00086932,0.00021298,-0.00049783,0.00005047,-0.00026140,-0.00416377,0
 .05632161,-0.01173480,0.06421274,-0.30925014,0.00019338,-0.00353522,-0
 .00240217,0.01247746,-0.00115495,-0.01390024,0.00094370,0.00396985,-0.
 00887724,0.00049915,-0.00006140,-0.00001543,-0.00051389,-0.00005876,0.
 00083918,-0.00000594,-0.00040632,0.00021858,-0.00200196,0.00010052,0.0
 0034964,-0.00081745,0.00036750,-0.00013839,0.00096035,-0.06343395,0.33
 317620\\-0.00000051,0.00000010,-0.00000053,0.00000051,-0.00000056,0.00
 000041,-0.00000012,0.00000040,0.00000009,0.00000089,-0.00000013,-0.000
 00028,-0.00000025,-0.00000004,-0.00000023,-0.00000004,0.00000015,-0.00
 000012,-0.00000027,-0.00000029,0.,-0.00000002,0.00000002,0.00000025,-0
 .00000019,0.00000039,0.00000023,0.00000001,-0.00000004,0.00000018\\\@


 THOSE WHO ASPIRE NOT TO GUESS AND DIVINE,
 BUT TO DISCOVER AND KNOW, WHO PROPOSE NOT TO DEVISE 
 MIMIC AND FABULOUS WORLDS OF THEIR OWN, BUT TO 
 EXAMINE AND DISSECT THE NATURE OF THIS VERY WORLD 
 ITSELF, MUST GO TO THE FACTS THEMSELVES FOR EVERYTHING.

                               -- FRANCIS BACON, 1620
 Job cpu time:       0 days  0 hours 22 minutes 11.3 seconds.
 Elapsed time:       0 days  0 hours  0 minutes 21.7 seconds.
 File lengths (MBytes):  RWF=     12 Int=      0 D2E=      0 Chk=      2 Scr=      1
 Normal termination of Gaussian 16 at Thu Aug 22 12:09:30 2019.
