 Entering Gaussian System, Link 0=g16
 Input=TBABr_opt_freq.com
 Output=TBABr_opt_freq.log
 Initial command:
 /apps/commercial/G16/g16.linda/l1.exe "/scratch/x1711a05/Gau-19969.inp" -scrdir="/scratch/x1711a05/"
 Default linda workers: node5384
 Entering Link 1 = /apps/commercial/G16/g16.linda/l1.exe PID=     19970.
  
 Copyright (c) 1988,1990,1992,1993,1995,1998,2003,2009,2016,
            Gaussian, Inc.  All Rights Reserved.
  
 This is part of the Gaussian(R) 16 program.  It is based on
 the Gaussian(R) 09 system (copyright 2009, Gaussian, Inc.),
 the Gaussian(R) 03 system (copyright 2003, Gaussian, Inc.),
 the Gaussian(R) 98 system (copyright 1998, Gaussian, Inc.),
 the Gaussian(R) 94 system (copyright 1995, Gaussian, Inc.),
 the Gaussian 92(TM) system (copyright 1992, Gaussian, Inc.),
 the Gaussian 90(TM) system (copyright 1990, Gaussian, Inc.),
 the Gaussian 88(TM) system (copyright 1988, Gaussian, Inc.),
 the Gaussian 86(TM) system (copyright 1986, Carnegie Mellon
 University), and the Gaussian 82(TM) system (copyright 1983,
 Carnegie Mellon University). Gaussian is a federally registered
 trademark of Gaussian, Inc.
  
 This software contains proprietary and confidential information,
 including trade secrets, belonging to Gaussian, Inc.
  
 This software is provided under written license and may be
 used, copied, transmitted, or stored only in accord with that
 written license.
  
 The following legend is applicable only to US Government
 contracts under FAR:
  
                    RESTRICTED RIGHTS LEGEND
  
 Use, reproduction and disclosure by the US Government is
 subject to restrictions as set forth in subparagraphs (a)
 and (c) of the Commercial Computer Software - Restricted
 Rights clause in FAR 52.227-19.
  
 Gaussian, Inc.
 340 Quinnipiac St., Bldg. 40, Wallingford CT 06492
  
  
 ---------------------------------------------------------------
 Warning -- This program may not be used in any manner that
 competes with the business of Gaussian, Inc. or will provide
 assistance to any competitor of Gaussian, Inc.  The licensee
 of this program is prohibited from giving any competitor of
 Gaussian, Inc. access to this program.  By using this program,
 the user acknowledges that Gaussian, Inc. is engaged in the
 business of creating and licensing software in the field of
 computational chemistry and represents and warrants to the
 licensee that it is not a competitor of Gaussian, Inc. and that
 it will not use this program in any manner prohibited above.
 ---------------------------------------------------------------
  

 Cite this work as:
 Gaussian 16, Revision A.03,
 M. J. Frisch, G. W. Trucks, H. B. Schlegel, G. E. Scuseria, 
 M. A. Robb, J. R. Cheeseman, G. Scalmani, V. Barone, 
 G. A. Petersson, H. Nakatsuji, X. Li, M. Caricato, A. V. Marenich, 
 J. Bloino, B. G. Janesko, R. Gomperts, B. Mennucci, H. P. Hratchian, 
 J. V. Ortiz, A. F. Izmaylov, J. L. Sonnenberg, D. Williams-Young, 
 F. Ding, F. Lipparini, F. Egidi, J. Goings, B. Peng, A. Petrone, 
 T. Henderson, D. Ranasinghe, V. G. Zakrzewski, J. Gao, N. Rega, 
 G. Zheng, W. Liang, M. Hada, M. Ehara, K. Toyota, R. Fukuda, 
 J. Hasegawa, M. Ishida, T. Nakajima, Y. Honda, O. Kitao, H. Nakai, 
 T. Vreven, K. Throssell, J. A. Montgomery, Jr., J. E. Peralta, 
 F. Ogliaro, M. J. Bearpark, J. J. Heyd, E. N. Brothers, K. N. Kudin, 
 V. N. Staroverov, T. A. Keith, R. Kobayashi, J. Normand, 
 K. Raghavachari, A. P. Rendell, J. C. Burant, S. S. Iyengar, 
 J. Tomasi, M. Cossi, J. M. Millam, M. Klene, C. Adamo, R. Cammi, 
 J. W. Ochterski, R. L. Martin, K. Morokuma, O. Farkas, 
 J. B. Foresman, and D. J. Fox, Gaussian, Inc., Wallingford CT, 2016.
 
 ******************************************
 Gaussian 16:  ES64L-G16RevA.03 25-Dec-2016
                26-Sep-2019 
 ******************************************
 %mem=64GB
 %nprocshared=64
 Will use up to   64 processors via shared memory.
 %chk=TBABr_opt_freq.chk
 SetLPE:    new flags="-opt 'Tsnet.Node.lindarsharg: ssh'  -nodelist 'node5384' -env GAUSS_MDEF=8589934592 -env GAUSS_EXEDIR="/apps/commercial/G16/g16.linda""
 Will use up to    1 processors via Linda.
 ------------------------------------------------------------------
 # opt=(calcfc,tight) freq cam-b3lyp/gen nosymm pseudo=read scf=xqc
 ------------------------------------------------------------------
 1/7=10,10=4,18=20,19=15,26=3,38=1/1,3;
 2/9=110,12=2,15=1,17=6,18=5,40=1/2;
 3/5=7,11=2,16=1,17=8,25=1,30=1,71=2,74=-40,140=1/1,2,3;
 4//1;
 5/5=2,8=3,13=1,38=5/2,8;
 8/6=4,10=90,11=11/1;
 11/6=1,8=1,9=11,15=111,16=1,31=1/1,2,10;
 10/6=1,13=1,31=1/2;
 6/7=2,8=2,9=2,10=2,28=1/1;
 7/10=1,18=20,25=1,30=1/1,2,3,16;
 1/7=10,10=4,18=20,19=15,26=3/3(2);
 2/9=110,15=1/2;
 99//99;
 2/9=110,15=1/2;
 3/5=7,6=1,11=2,16=1,17=8,25=1,30=1,71=1,74=-40,82=7/1,2,3;
 4/5=5,16=3,69=1/1;
 5/5=2,8=3,13=1,38=5/2,8;
 7/30=1/1,2,3,16;
 1/7=10,18=20,19=15,26=3/3(-5);
 2/9=110,15=1/2;
 6/7=2,8=2,9=2,10=2,19=2,28=1/1;
 99/9=1/99;
 --------------
 TBABr_opt_freq
 --------------
 Symbolic Z-matrix:
 Charge =  0 Multiplicity = 1
 N                    -0.22515   0.4544    0.24431 
 C                    -1.22124   1.1783    1.15143 
 H                    -0.75316   2.14403   1.38577 
 H                    -1.27916   0.57174   2.05863 
 C                    -0.92133  -0.68015  -0.46099 
 H                    -1.71483  -0.23572  -1.05955 
 H                    -1.39797  -1.27391   0.32436 
 C                     0.87175  -0.11107   1.13348 
 H                     1.66927  -0.43184   0.46176 
 H                     0.45264  -1.00554   1.60364 
 C                     0.45321   1.40618  -0.73506 
 H                     1.20814   0.80783  -1.24855 
 H                     0.93399   2.17358  -0.12135 
 Br                    0.37342   4.31042   1.06815 
 C                    -0.4237    2.1407   -1.73304 
 C                     0.47313   2.9618   -2.66364 
 H                    -1.05747   2.8457   -1.19134 
 H                    -1.05474   1.46436  -2.32368 
 C                    -0.33247   3.76104  -3.68234 
 H                     1.05907   3.64579  -2.041 
 H                     1.1798    2.30134  -3.18345 
 H                     0.32401   4.34246  -4.33476 
 H                    -0.94025   3.10754  -4.31759 
 H                    -1.00451   4.4619   -3.17914 
 C                     1.43372   0.83728   2.19107 
 C                     2.80163   0.34847   2.67135 
 H                     0.75255   0.88787   3.04569 
 H                     1.51349   1.86536   1.8197 
 C                     3.35146   1.21806   3.79785 
 H                     2.73457  -0.6949    3.00789 
 H                     3.50288   0.35469   1.82764 
 H                     4.34374   0.88209   4.10984 
 H                     3.42818   2.2616    3.48081 
 H                     2.69677   1.1874    4.674 
 C                    -2.63317   1.4093    0.62438 
 C                    -3.3396    2.40301   1.55325 
 H                    -3.20529   0.47489   0.58251 
 H                    -2.62398   1.82604  -0.384 
 C                    -4.7756    2.68109   1.12219 
 H                    -3.33271   2.01188   2.5784 
 H                    -2.75774   3.33083   1.57085 
 H                    -5.25674   3.39359   1.79672 
 H                    -4.80901   3.10693   0.11451 
 H                    -5.37866   1.76684   1.11766 
 C                    -0.05807  -1.57295  -1.34273 
 C                    -0.90942  -2.67935  -1.97178 
 H                     0.75107  -2.03278  -0.76711 
 H                     0.40798  -0.98776  -2.14134 
 C                    -0.09362  -3.5993   -2.87477 
 H                    -1.38478  -3.26914  -1.17876 
 H                    -1.72501  -2.22689  -2.5483 
 H                    -0.72065  -4.37996  -3.312 
 H                     0.36516  -3.04144  -3.69661 
 H                     0.7097   -4.09067  -2.31744 
 
 Add virtual bond connecting atoms Br14       and H3         Dist= 4.65D+00.
 Add virtual bond connecting atoms Br14       and H13        Dist= 4.74D+00.

 GradGradGradGradGradGradGradGradGradGradGradGradGradGradGradGradGradGrad
 Berny optimization.
 Initialization pass.
                           ----------------------------
                           !    Initial Parameters    !
                           ! (Angstroms and Degrees)  !
 --------------------------                            --------------------------
 ! Name  Definition              Value          Derivative Info.                !
 --------------------------------------------------------------------------------
 ! R1    R(1,2)                  1.5294         calculate D2E/DX2 analytically  !
 ! R2    R(1,5)                  1.5064         calculate D2E/DX2 analytically  !
 ! R3    R(1,8)                  1.521          calculate D2E/DX2 analytically  !
 ! R4    R(1,11)                 1.5249         calculate D2E/DX2 analytically  !
 ! R5    R(2,3)                  1.0985         calculate D2E/DX2 analytically  !
 ! R6    R(2,4)                  1.0928         calculate D2E/DX2 analytically  !
 ! R7    R(2,35)                 1.5247         calculate D2E/DX2 analytically  !
 ! R8    R(3,14)                 2.4624         calculate D2E/DX2 analytically  !
 ! R9    R(5,6)                  1.0888         calculate D2E/DX2 analytically  !
 ! R10   R(5,7)                  1.0939         calculate D2E/DX2 analytically  !
 ! R11   R(5,45)                 1.5231         calculate D2E/DX2 analytically  !
 ! R12   R(8,9)                  1.0909         calculate D2E/DX2 analytically  !
 ! R13   R(8,10)                 1.094          calculate D2E/DX2 analytically  !
 ! R14   R(8,25)                 1.5276         calculate D2E/DX2 analytically  !
 ! R15   R(11,12)                1.0916         calculate D2E/DX2 analytically  !
 ! R16   R(11,13)                1.0939         calculate D2E/DX2 analytically  !
 ! R17   R(11,15)                1.518          calculate D2E/DX2 analytically  !
 ! R18   R(13,14)                2.509          calculate D2E/DX2 analytically  !
 ! R19   R(15,16)                1.5312         calculate D2E/DX2 analytically  !
 ! R20   R(15,17)                1.0918         calculate D2E/DX2 analytically  !
 ! R21   R(15,18)                1.0975         calculate D2E/DX2 analytically  !
 ! R22   R(16,19)                1.525          calculate D2E/DX2 analytically  !
 ! R23   R(16,20)                1.0949         calculate D2E/DX2 analytically  !
 ! R24   R(16,21)                1.0981         calculate D2E/DX2 analytically  !
 ! R25   R(19,22)                1.093          calculate D2E/DX2 analytically  !
 ! R26   R(19,23)                1.0954         calculate D2E/DX2 analytically  !
 ! R27   R(19,24)                1.0936         calculate D2E/DX2 analytically  !
 ! R28   R(25,26)                1.53           calculate D2E/DX2 analytically  !
 ! R29   R(25,27)                1.094          calculate D2E/DX2 analytically  !
 ! R30   R(25,28)                1.096          calculate D2E/DX2 analytically  !
 ! R31   R(26,29)                1.5256         calculate D2E/DX2 analytically  !
 ! R32   R(26,30)                1.0983         calculate D2E/DX2 analytically  !
 ! R33   R(26,31)                1.0971         calculate D2E/DX2 analytically  !
 ! R34   R(29,32)                1.0931         calculate D2E/DX2 analytically  !
 ! R35   R(29,33)                1.0933         calculate D2E/DX2 analytically  !
 ! R36   R(29,34)                1.0942         calculate D2E/DX2 analytically  !
 ! R37   R(35,36)                1.5327         calculate D2E/DX2 analytically  !
 ! R38   R(35,37)                1.0965         calculate D2E/DX2 analytically  !
 ! R39   R(35,38)                1.0911         calculate D2E/DX2 analytically  !
 ! R40   R(36,39)                1.5249         calculate D2E/DX2 analytically  !
 ! R41   R(36,40)                1.0973         calculate D2E/DX2 analytically  !
 ! R42   R(36,41)                1.0953         calculate D2E/DX2 analytically  !
 ! R43   R(39,42)                1.0928         calculate D2E/DX2 analytically  !
 ! R44   R(39,43)                1.0945         calculate D2E/DX2 analytically  !
 ! R45   R(39,44)                1.0952         calculate D2E/DX2 analytically  !
 ! R46   R(45,46)                1.5312         calculate D2E/DX2 analytically  !
 ! R47   R(45,47)                1.0943         calculate D2E/DX2 analytically  !
 ! R48   R(45,48)                1.0943         calculate D2E/DX2 analytically  !
 ! R49   R(46,49)                1.5255         calculate D2E/DX2 analytically  !
 ! R50   R(46,50)                1.0967         calculate D2E/DX2 analytically  !
 ! R51   R(46,51)                1.0965         calculate D2E/DX2 analytically  !
 ! R52   R(49,52)                1.0926         calculate D2E/DX2 analytically  !
 ! R53   R(49,53)                1.0941         calculate D2E/DX2 analytically  !
 ! R54   R(49,54)                1.0943         calculate D2E/DX2 analytically  !
 ! A1    A(2,1,5)              109.4623         calculate D2E/DX2 analytically  !
 ! A2    A(2,1,8)              107.3926         calculate D2E/DX2 analytically  !
 ! A3    A(2,1,11)             112.0393         calculate D2E/DX2 analytically  !
 ! A4    A(5,1,8)              109.0853         calculate D2E/DX2 analytically  !
 ! A5    A(5,1,11)             112.0225         calculate D2E/DX2 analytically  !
 ! A6    A(8,1,11)             106.6598         calculate D2E/DX2 analytically  !
 ! A7    A(1,2,3)              105.3747         calculate D2E/DX2 analytically  !
 ! A8    A(1,2,4)              105.3183         calculate D2E/DX2 analytically  !
 ! A9    A(1,2,35)             118.0218         calculate D2E/DX2 analytically  !
 ! A10   A(3,2,4)              109.4783         calculate D2E/DX2 analytically  !
 ! A11   A(3,2,35)             109.5813         calculate D2E/DX2 analytically  !
 ! A12   A(4,2,35)             108.782          calculate D2E/DX2 analytically  !
 ! A13   A(2,3,14)             160.2056         calculate D2E/DX2 analytically  !
 ! A14   A(1,5,6)              106.6645         calculate D2E/DX2 analytically  !
 ! A15   A(1,5,7)              105.9048         calculate D2E/DX2 analytically  !
 ! A16   A(1,5,45)             116.7814         calculate D2E/DX2 analytically  !
 ! A17   A(6,5,7)              107.3802         calculate D2E/DX2 analytically  !
 ! A18   A(6,5,45)             109.5171         calculate D2E/DX2 analytically  !
 ! A19   A(7,5,45)             110.1472         calculate D2E/DX2 analytically  !
 ! A20   A(1,8,9)              106.0549         calculate D2E/DX2 analytically  !
 ! A21   A(1,8,10)             106.1962         calculate D2E/DX2 analytically  !
 ! A22   A(1,8,25)             116.0531         calculate D2E/DX2 analytically  !
 ! A23   A(9,8,10)             107.715          calculate D2E/DX2 analytically  !
 ! A24   A(9,8,25)             109.8695         calculate D2E/DX2 analytically  !
 ! A25   A(10,8,25)            110.5475         calculate D2E/DX2 analytically  !
 ! A26   A(1,11,12)            105.5241         calculate D2E/DX2 analytically  !
 ! A27   A(1,11,13)            105.8459         calculate D2E/DX2 analytically  !
 ! A28   A(1,11,15)            117.857          calculate D2E/DX2 analytically  !
 ! A29   A(12,11,13)           110.1494         calculate D2E/DX2 analytically  !
 ! A30   A(12,11,15)           110.8225         calculate D2E/DX2 analytically  !
 ! A31   A(13,11,15)           106.4555         calculate D2E/DX2 analytically  !
 ! A32   A(11,13,14)           139.926          calculate D2E/DX2 analytically  !
 ! A33   A(3,14,13)             54.1324         calculate D2E/DX2 analytically  !
 ! A34   A(11,15,16)           108.7042         calculate D2E/DX2 analytically  !
 ! A35   A(11,15,17)           108.7581         calculate D2E/DX2 analytically  !
 ! A36   A(11,15,18)           112.8151         calculate D2E/DX2 analytically  !
 ! A37   A(16,15,17)           107.173          calculate D2E/DX2 analytically  !
 ! A38   A(16,15,18)           109.8864         calculate D2E/DX2 analytically  !
 ! A39   A(17,15,18)           109.3393         calculate D2E/DX2 analytically  !
 ! A40   A(15,16,19)           112.1871         calculate D2E/DX2 analytically  !
 ! A41   A(15,16,20)           107.627          calculate D2E/DX2 analytically  !
 ! A42   A(15,16,21)           110.0046         calculate D2E/DX2 analytically  !
 ! A43   A(19,16,20)           109.5838         calculate D2E/DX2 analytically  !
 ! A44   A(19,16,21)           109.8145         calculate D2E/DX2 analytically  !
 ! A45   A(20,16,21)           107.489          calculate D2E/DX2 analytically  !
 ! A46   A(16,19,22)           111.1153         calculate D2E/DX2 analytically  !
 ! A47   A(16,19,23)           111.5817         calculate D2E/DX2 analytically  !
 ! A48   A(16,19,24)           110.6787         calculate D2E/DX2 analytically  !
 ! A49   A(22,19,23)           107.7236         calculate D2E/DX2 analytically  !
 ! A50   A(22,19,24)           107.6269         calculate D2E/DX2 analytically  !
 ! A51   A(23,19,24)           107.9505         calculate D2E/DX2 analytically  !
 ! A52   A(8,25,26)            110.3585         calculate D2E/DX2 analytically  !
 ! A53   A(8,25,27)            109.9052         calculate D2E/DX2 analytically  !
 ! A54   A(8,25,28)            111.9946         calculate D2E/DX2 analytically  !
 ! A55   A(26,25,27)           109.0396         calculate D2E/DX2 analytically  !
 ! A56   A(26,25,28)           109.9371         calculate D2E/DX2 analytically  !
 ! A57   A(27,25,28)           105.4634         calculate D2E/DX2 analytically  !
 ! A58   A(25,26,29)           111.8336         calculate D2E/DX2 analytically  !
 ! A59   A(25,26,30)           110.1881         calculate D2E/DX2 analytically  !
 ! A60   A(25,26,31)           109.1632         calculate D2E/DX2 analytically  !
 ! A61   A(29,26,30)           109.7073         calculate D2E/DX2 analytically  !
 ! A62   A(29,26,31)           109.5267         calculate D2E/DX2 analytically  !
 ! A63   A(30,26,31)           106.263          calculate D2E/DX2 analytically  !
 ! A64   A(26,29,32)           111.2674         calculate D2E/DX2 analytically  !
 ! A65   A(26,29,33)           110.8064         calculate D2E/DX2 analytically  !
 ! A66   A(26,29,34)           111.0788         calculate D2E/DX2 analytically  !
 ! A67   A(32,29,33)           108.2053         calculate D2E/DX2 analytically  !
 ! A68   A(32,29,34)           107.8187         calculate D2E/DX2 analytically  !
 ! A69   A(33,29,34)           107.5133         calculate D2E/DX2 analytically  !
 ! A70   A(2,35,36)            108.3937         calculate D2E/DX2 analytically  !
 ! A71   A(2,35,37)            111.5486         calculate D2E/DX2 analytically  !
 ! A72   A(2,35,38)            111.6862         calculate D2E/DX2 analytically  !
 ! A73   A(36,35,37)           109.5826         calculate D2E/DX2 analytically  !
 ! A74   A(36,35,38)           108.4404         calculate D2E/DX2 analytically  !
 ! A75   A(37,35,38)           107.1327         calculate D2E/DX2 analytically  !
 ! A76   A(35,36,39)           112.3922         calculate D2E/DX2 analytically  !
 ! A77   A(35,36,40)           109.4021         calculate D2E/DX2 analytically  !
 ! A78   A(35,36,41)           108.3055         calculate D2E/DX2 analytically  !
 ! A79   A(39,36,40)           109.5737         calculate D2E/DX2 analytically  !
 ! A80   A(39,36,41)           110.5078         calculate D2E/DX2 analytically  !
 ! A81   A(40,36,41)           106.4759         calculate D2E/DX2 analytically  !
 ! A82   A(36,39,42)           111.0412         calculate D2E/DX2 analytically  !
 ! A83   A(36,39,43)           111.0979         calculate D2E/DX2 analytically  !
 ! A84   A(36,39,44)           111.5602         calculate D2E/DX2 analytically  !
 ! A85   A(42,39,43)           107.5292         calculate D2E/DX2 analytically  !
 ! A86   A(42,39,44)           107.7215         calculate D2E/DX2 analytically  !
 ! A87   A(43,39,44)           107.7078         calculate D2E/DX2 analytically  !
 ! A88   A(5,45,46)            110.2579         calculate D2E/DX2 analytically  !
 ! A89   A(5,45,47)            111.1549         calculate D2E/DX2 analytically  !
 ! A90   A(5,45,48)            110.5129         calculate D2E/DX2 analytically  !
 ! A91   A(46,45,47)           108.8796         calculate D2E/DX2 analytically  !
 ! A92   A(46,45,48)           108.868          calculate D2E/DX2 analytically  !
 ! A93   A(47,45,48)           107.0793         calculate D2E/DX2 analytically  !
 ! A94   A(45,46,49)           112.4309         calculate D2E/DX2 analytically  !
 ! A95   A(45,46,50)           109.4218         calculate D2E/DX2 analytically  !
 ! A96   A(45,46,51)           109.3538         calculate D2E/DX2 analytically  !
 ! A97   A(49,46,50)           109.6039         calculate D2E/DX2 analytically  !
 ! A98   A(49,46,51)           109.596          calculate D2E/DX2 analytically  !
 ! A99   A(50,46,51)           106.2435         calculate D2E/DX2 analytically  !
 ! A100  A(46,49,52)           111.152          calculate D2E/DX2 analytically  !
 ! A101  A(46,49,53)           111.1855         calculate D2E/DX2 analytically  !
 ! A102  A(46,49,54)           111.2168         calculate D2E/DX2 analytically  !
 ! A103  A(52,49,53)           107.7192         calculate D2E/DX2 analytically  !
 ! A104  A(52,49,54)           107.7144         calculate D2E/DX2 analytically  !
 ! A105  A(53,49,54)           107.6803         calculate D2E/DX2 analytically  !
 ! D1    D(5,1,2,3)           -163.2609         calculate D2E/DX2 analytically  !
 ! D2    D(5,1,2,4)             81.0249         calculate D2E/DX2 analytically  !
 ! D3    D(5,1,2,35)           -40.5717         calculate D2E/DX2 analytically  !
 ! D4    D(8,1,2,3)             78.4384         calculate D2E/DX2 analytically  !
 ! D5    D(8,1,2,4)            -37.2758         calculate D2E/DX2 analytically  !
 ! D6    D(8,1,2,35)          -158.8724         calculate D2E/DX2 analytically  !
 ! D7    D(11,1,2,3)           -38.3639         calculate D2E/DX2 analytically  !
 ! D8    D(11,1,2,4)          -154.0781         calculate D2E/DX2 analytically  !
 ! D9    D(11,1,2,35)           84.3253         calculate D2E/DX2 analytically  !
 ! D10   D(2,1,5,6)             61.0411         calculate D2E/DX2 analytically  !
 ! D11   D(2,1,5,7)            -53.1332         calculate D2E/DX2 analytically  !
 ! D12   D(2,1,5,45)          -176.1578         calculate D2E/DX2 analytically  !
 ! D13   D(8,1,5,6)            178.2825         calculate D2E/DX2 analytically  !
 ! D14   D(8,1,5,7)             64.1081         calculate D2E/DX2 analytically  !
 ! D15   D(8,1,5,45)           -58.9165         calculate D2E/DX2 analytically  !
 ! D16   D(11,1,5,6)           -63.8656         calculate D2E/DX2 analytically  !
 ! D17   D(11,1,5,7)          -178.04           calculate D2E/DX2 analytically  !
 ! D18   D(11,1,5,45)           58.9354         calculate D2E/DX2 analytically  !
 ! D19   D(2,1,8,9)           -168.2442         calculate D2E/DX2 analytically  !
 ! D20   D(2,1,8,10)            77.3432         calculate D2E/DX2 analytically  !
 ! D21   D(2,1,8,25)           -45.9432         calculate D2E/DX2 analytically  !
 ! D22   D(5,1,8,9)             73.2116         calculate D2E/DX2 analytically  !
 ! D23   D(5,1,8,10)           -41.201          calculate D2E/DX2 analytically  !
 ! D24   D(5,1,8,25)          -164.4875         calculate D2E/DX2 analytically  !
 ! D25   D(11,1,8,9)           -47.9667         calculate D2E/DX2 analytically  !
 ! D26   D(11,1,8,10)         -162.3793         calculate D2E/DX2 analytically  !
 ! D27   D(11,1,8,25)           74.3342         calculate D2E/DX2 analytically  !
 ! D28   D(2,1,11,12)          174.1303         calculate D2E/DX2 analytically  !
 ! D29   D(2,1,11,13)           57.356          calculate D2E/DX2 analytically  !
 ! D30   D(2,1,11,15)          -61.53           calculate D2E/DX2 analytically  !
 ! D31   D(5,1,11,12)          -62.4005         calculate D2E/DX2 analytically  !
 ! D32   D(5,1,11,13)         -179.1748         calculate D2E/DX2 analytically  !
 ! D33   D(5,1,11,15)           61.9392         calculate D2E/DX2 analytically  !
 ! D34   D(8,1,11,12)           56.8879         calculate D2E/DX2 analytically  !
 ! D35   D(8,1,11,13)          -59.8864         calculate D2E/DX2 analytically  !
 ! D36   D(8,1,11,15)         -178.7724         calculate D2E/DX2 analytically  !
 ! D37   D(1,2,3,14)            50.5389         calculate D2E/DX2 analytically  !
 ! D38   D(4,2,3,14)           163.3613         calculate D2E/DX2 analytically  !
 ! D39   D(35,2,3,14)          -77.4105         calculate D2E/DX2 analytically  !
 ! D40   D(1,2,35,36)         -167.6332         calculate D2E/DX2 analytically  !
 ! D41   D(1,2,35,37)           71.6317         calculate D2E/DX2 analytically  !
 ! D42   D(1,2,35,38)          -48.2283         calculate D2E/DX2 analytically  !
 ! D43   D(3,2,35,36)          -47.0967         calculate D2E/DX2 analytically  !
 ! D44   D(3,2,35,37)         -167.8318         calculate D2E/DX2 analytically  !
 ! D45   D(3,2,35,38)           72.3082         calculate D2E/DX2 analytically  !
 ! D46   D(4,2,35,36)           72.5595         calculate D2E/DX2 analytically  !
 ! D47   D(4,2,35,37)          -48.1756         calculate D2E/DX2 analytically  !
 ! D48   D(4,2,35,38)         -168.0356         calculate D2E/DX2 analytically  !
 ! D49   D(2,3,14,13)          -42.1736         calculate D2E/DX2 analytically  !
 ! D50   D(1,5,45,46)          179.4131         calculate D2E/DX2 analytically  !
 ! D51   D(1,5,45,47)           58.5718         calculate D2E/DX2 analytically  !
 ! D52   D(1,5,45,48)          -60.1802         calculate D2E/DX2 analytically  !
 ! D53   D(6,5,45,46)          -59.2741         calculate D2E/DX2 analytically  !
 ! D54   D(6,5,45,47)          179.8846         calculate D2E/DX2 analytically  !
 ! D55   D(6,5,45,48)           61.1326         calculate D2E/DX2 analytically  !
 ! D56   D(7,5,45,46)           58.6058         calculate D2E/DX2 analytically  !
 ! D57   D(7,5,45,47)          -62.2354         calculate D2E/DX2 analytically  !
 ! D58   D(7,5,45,48)          179.0126         calculate D2E/DX2 analytically  !
 ! D59   D(1,8,25,26)         -160.5612         calculate D2E/DX2 analytically  !
 ! D60   D(1,8,25,27)           79.1453         calculate D2E/DX2 analytically  !
 ! D61   D(1,8,25,28)          -37.7319         calculate D2E/DX2 analytically  !
 ! D62   D(9,8,25,26)          -40.2961         calculate D2E/DX2 analytically  !
 ! D63   D(9,8,25,27)         -160.5896         calculate D2E/DX2 analytically  !
 ! D64   D(9,8,25,28)           82.5332         calculate D2E/DX2 analytically  !
 ! D65   D(10,8,25,26)          78.4537         calculate D2E/DX2 analytically  !
 ! D66   D(10,8,25,27)         -41.8398         calculate D2E/DX2 analytically  !
 ! D67   D(10,8,25,28)        -158.717          calculate D2E/DX2 analytically  !
 ! D68   D(1,11,13,14)         -82.4622         calculate D2E/DX2 analytically  !
 ! D69   D(12,11,13,14)        163.9284         calculate D2E/DX2 analytically  !
 ! D70   D(15,11,13,14)         43.7165         calculate D2E/DX2 analytically  !
 ! D71   D(1,11,15,16)        -176.4063         calculate D2E/DX2 analytically  !
 ! D72   D(1,11,15,17)          67.2223         calculate D2E/DX2 analytically  !
 ! D73   D(1,11,15,18)         -54.2636         calculate D2E/DX2 analytically  !
 ! D74   D(12,11,15,16)        -54.7462         calculate D2E/DX2 analytically  !
 ! D75   D(12,11,15,17)       -171.1176         calculate D2E/DX2 analytically  !
 ! D76   D(12,11,15,18)         67.3964         calculate D2E/DX2 analytically  !
 ! D77   D(13,11,15,16)         65.0299         calculate D2E/DX2 analytically  !
 ! D78   D(13,11,15,17)        -51.3415         calculate D2E/DX2 analytically  !
 ! D79   D(13,11,15,18)       -172.8274         calculate D2E/DX2 analytically  !
 ! D80   D(11,13,14,3)          55.227          calculate D2E/DX2 analytically  !
 ! D81   D(11,15,16,19)       -178.6646         calculate D2E/DX2 analytically  !
 ! D82   D(11,15,16,20)        -58.0404         calculate D2E/DX2 analytically  !
 ! D83   D(11,15,16,21)         58.7835         calculate D2E/DX2 analytically  !
 ! D84   D(17,15,16,19)        -61.2791         calculate D2E/DX2 analytically  !
 ! D85   D(17,15,16,20)         59.345          calculate D2E/DX2 analytically  !
 ! D86   D(17,15,16,21)        176.169          calculate D2E/DX2 analytically  !
 ! D87   D(18,15,16,19)         57.4312         calculate D2E/DX2 analytically  !
 ! D88   D(18,15,16,20)        178.0553         calculate D2E/DX2 analytically  !
 ! D89   D(18,15,16,21)        -65.1207         calculate D2E/DX2 analytically  !
 ! D90   D(15,16,19,22)        179.8175         calculate D2E/DX2 analytically  !
 ! D91   D(15,16,19,23)        -59.9378         calculate D2E/DX2 analytically  !
 ! D92   D(15,16,19,24)         60.2976         calculate D2E/DX2 analytically  !
 ! D93   D(20,16,19,22)         60.3319         calculate D2E/DX2 analytically  !
 ! D94   D(20,16,19,23)       -179.4234         calculate D2E/DX2 analytically  !
 ! D95   D(20,16,19,24)        -59.188          calculate D2E/DX2 analytically  !
 ! D96   D(21,16,19,22)        -57.523          calculate D2E/DX2 analytically  !
 ! D97   D(21,16,19,23)         62.7217         calculate D2E/DX2 analytically  !
 ! D98   D(21,16,19,24)       -177.0429         calculate D2E/DX2 analytically  !
 ! D99   D(8,25,26,29)        -176.0676         calculate D2E/DX2 analytically  !
 ! D100  D(8,25,26,30)         -53.7665         calculate D2E/DX2 analytically  !
 ! D101  D(8,25,26,31)          62.5712         calculate D2E/DX2 analytically  !
 ! D102  D(27,25,26,29)        -55.2556         calculate D2E/DX2 analytically  !
 ! D103  D(27,25,26,30)         67.0456         calculate D2E/DX2 analytically  !
 ! D104  D(27,25,26,31)       -176.6168         calculate D2E/DX2 analytically  !
 ! D105  D(28,25,26,29)         59.9085         calculate D2E/DX2 analytically  !
 ! D106  D(28,25,26,30)       -177.7904         calculate D2E/DX2 analytically  !
 ! D107  D(28,25,26,31)        -61.4527         calculate D2E/DX2 analytically  !
 ! D108  D(25,26,29,32)       -178.0043         calculate D2E/DX2 analytically  !
 ! D109  D(25,26,29,33)        -57.5703         calculate D2E/DX2 analytically  !
 ! D110  D(25,26,29,34)         61.8672         calculate D2E/DX2 analytically  !
 ! D111  D(30,26,29,32)         59.4201         calculate D2E/DX2 analytically  !
 ! D112  D(30,26,29,33)        179.8541         calculate D2E/DX2 analytically  !
 ! D113  D(30,26,29,34)        -60.7085         calculate D2E/DX2 analytically  !
 ! D114  D(31,26,29,32)        -56.8533         calculate D2E/DX2 analytically  !
 ! D115  D(31,26,29,33)         63.5807         calculate D2E/DX2 analytically  !
 ! D116  D(31,26,29,34)       -176.9819         calculate D2E/DX2 analytically  !
 ! D117  D(2,35,36,39)        -178.9458         calculate D2E/DX2 analytically  !
 ! D118  D(2,35,36,40)         -56.9899         calculate D2E/DX2 analytically  !
 ! D119  D(2,35,36,41)          58.6829         calculate D2E/DX2 analytically  !
 ! D120  D(37,35,36,39)        -56.9994         calculate D2E/DX2 analytically  !
 ! D121  D(37,35,36,40)         64.9564         calculate D2E/DX2 analytically  !
 ! D122  D(37,35,36,41)       -179.3708         calculate D2E/DX2 analytically  !
 ! D123  D(38,35,36,39)         59.6297         calculate D2E/DX2 analytically  !
 ! D124  D(38,35,36,40)       -178.4145         calculate D2E/DX2 analytically  !
 ! D125  D(38,35,36,41)        -62.7417         calculate D2E/DX2 analytically  !
 ! D126  D(35,36,39,42)       -179.8195         calculate D2E/DX2 analytically  !
 ! D127  D(35,36,39,43)        -60.1947         calculate D2E/DX2 analytically  !
 ! D128  D(35,36,39,44)         60.0035         calculate D2E/DX2 analytically  !
 ! D129  D(40,36,39,42)         58.3222         calculate D2E/DX2 analytically  !
 ! D130  D(40,36,39,43)        177.9469         calculate D2E/DX2 analytically  !
 ! D131  D(40,36,39,44)        -61.8548         calculate D2E/DX2 analytically  !
 ! D132  D(41,36,39,42)        -58.7023         calculate D2E/DX2 analytically  !
 ! D133  D(41,36,39,43)         60.9225         calculate D2E/DX2 analytically  !
 ! D134  D(41,36,39,44)       -178.8793         calculate D2E/DX2 analytically  !
 ! D135  D(5,45,46,49)         179.6103         calculate D2E/DX2 analytically  !
 ! D136  D(5,45,46,50)         -58.3555         calculate D2E/DX2 analytically  !
 ! D137  D(5,45,46,51)          57.6341         calculate D2E/DX2 analytically  !
 ! D138  D(47,45,46,49)        -58.1966         calculate D2E/DX2 analytically  !
 ! D139  D(47,45,46,50)         63.8376         calculate D2E/DX2 analytically  !
 ! D140  D(47,45,46,51)        179.8272         calculate D2E/DX2 analytically  !
 ! D141  D(48,45,46,49)         58.2199         calculate D2E/DX2 analytically  !
 ! D142  D(48,45,46,50)       -179.7459         calculate D2E/DX2 analytically  !
 ! D143  D(48,45,46,51)        -63.7563         calculate D2E/DX2 analytically  !
 ! D144  D(45,46,49,52)        179.9976         calculate D2E/DX2 analytically  !
 ! D145  D(45,46,49,53)        -60.0056         calculate D2E/DX2 analytically  !
 ! D146  D(45,46,49,54)         59.9856         calculate D2E/DX2 analytically  !
 ! D147  D(50,46,49,52)         58.0666         calculate D2E/DX2 analytically  !
 ! D148  D(50,46,49,53)        178.0635         calculate D2E/DX2 analytically  !
 ! D149  D(50,46,49,54)        -61.9453         calculate D2E/DX2 analytically  !
 ! D150  D(51,46,49,52)        -58.1638         calculate D2E/DX2 analytically  !
 ! D151  D(51,46,49,53)         61.833          calculate D2E/DX2 analytically  !
 ! D152  D(51,46,49,54)       -178.1758         calculate D2E/DX2 analytically  !
 --------------------------------------------------------------------------------
 Trust Radius=3.00D-01 FncErr=1.00D-07 GrdErr=1.00D-06 EigMax=2.50D+02 EigMin=1.00D-04
 Number of steps in this run=    321 maximum allowed number of steps=    324.
 GradGradGradGradGradGradGradGradGradGradGradGradGradGradGradGradGradGrad

 Symmetry turned off by external request.
 Stoichiometry    C16H36BrN
 Framework group  C1[X(C16H36BrN)]
 Deg. of freedom   156
 Full point group                 C1      NOp   1
                          Input orientation:                          
 ---------------------------------------------------------------------
 Center     Atomic      Atomic             Coordinates (Angstroms)
 Number     Number       Type             X           Y           Z
 ---------------------------------------------------------------------
      1          7           0       -0.225151    0.454403    0.244310
      2          6           0       -1.221236    1.178299    1.151430
      3          1           0       -0.753161    2.144032    1.385772
      4          1           0       -1.279156    0.571740    2.058632
      5          6           0       -0.921329   -0.680150   -0.460994
      6          1           0       -1.714825   -0.235715   -1.059553
      7          1           0       -1.397973   -1.273911    0.324362
      8          6           0        0.871752   -0.111071    1.133479
      9          1           0        1.669270   -0.431838    0.461755
     10          1           0        0.452642   -1.005545    1.603640
     11          6           0        0.453207    1.406184   -0.735063
     12          1           0        1.208141    0.807829   -1.248554
     13          1           0        0.933993    2.173579   -0.121346
     14         35           0        0.373421    4.310419    1.068149
     15          6           0       -0.423701    2.140704   -1.733036
     16          6           0        0.473128    2.961804   -2.663639
     17          1           0       -1.057473    2.845700   -1.191339
     18          1           0       -1.054741    1.464364   -2.323679
     19          6           0       -0.332470    3.761035   -3.682342
     20          1           0        1.059074    3.645786   -2.041000
     21          1           0        1.179804    2.301339   -3.183446
     22          1           0        0.324007    4.342456   -4.334765
     23          1           0       -0.940245    3.107539   -4.317590
     24          1           0       -1.004506    4.461902   -3.179141
     25          6           0        1.433721    0.837276    2.191065
     26          6           0        2.801625    0.348466    2.671348
     27          1           0        0.752554    0.887866    3.045686
     28          1           0        1.513489    1.865362    1.819699
     29          6           0        3.351457    1.218058    3.797851
     30          1           0        2.734572   -0.694899    3.007887
     31          1           0        3.502881    0.354691    1.827644
     32          1           0        4.343738    0.882086    4.109839
     33          1           0        3.428184    2.261598    3.480812
     34          1           0        2.696770    1.187403    4.673998
     35          6           0       -2.633169    1.409300    0.624383
     36          6           0       -3.339596    2.403014    1.553252
     37          1           0       -3.205292    0.474887    0.582507
     38          1           0       -2.623981    1.826040   -0.383998
     39          6           0       -4.775600    2.681087    1.122193
     40          1           0       -3.332714    2.011877    2.578402
     41          1           0       -2.757741    3.330828    1.570852
     42          1           0       -5.256737    3.393593    1.796724
     43          1           0       -4.809006    3.106926    0.114508
     44          1           0       -5.378663    1.766841    1.117657
     45          6           0       -0.058066   -1.572947   -1.342730
     46          6           0       -0.909424   -2.679353   -1.971780
     47          1           0        0.751074   -2.032780   -0.767113
     48          1           0        0.407981   -0.987755   -2.141344
     49          6           0       -0.093619   -3.599295   -2.874771
     50          1           0       -1.384776   -3.269140   -1.178756
     51          1           0       -1.725012   -2.226890   -2.548302
     52          1           0       -0.720645   -4.379958   -3.312000
     53          1           0        0.365164   -3.041439   -3.696613
     54          1           0        0.709697   -4.090673   -2.317437
 ---------------------------------------------------------------------
 Rotational constants (GHZ):           0.2570641           0.1906482           0.1620737
 General basis read from cards:  (5D, 7F)
 ======================================================================================================
                                       Pseudopotential Parameters
 ======================================================================================================
  Center     Atomic      Valence      Angular      Power
  Number     Number     Electrons     Momentum     of R      Exponent        Coefficient   SO-Coeffient
 ======================================================================================================
    1          7
                                   No pseudopotential on this center.
    2          6
                                   No pseudopotential on this center.
    3          1
                                   No pseudopotential on this center.
    4          1
                                   No pseudopotential on this center.
    5          6
                                   No pseudopotential on this center.
    6          1
                                   No pseudopotential on this center.
    7          1
                                   No pseudopotential on this center.
    8          6
                                   No pseudopotential on this center.
    9          1
                                   No pseudopotential on this center.
   10          1
                                   No pseudopotential on this center.
   11          6
                                   No pseudopotential on this center.
   12          1
                                   No pseudopotential on this center.
   13          1
                                   No pseudopotential on this center.
   14         35
                                   No pseudopotential on this center.
   15          6
                                   No pseudopotential on this center.
   16          6
                                   No pseudopotential on this center.
   17          1
                                   No pseudopotential on this center.
   18          1
                                   No pseudopotential on this center.
   19          6
                                   No pseudopotential on this center.
   20          1
                                   No pseudopotential on this center.
   21          1
                                   No pseudopotential on this center.
   22          1
                                   No pseudopotential on this center.
   23          1
                                   No pseudopotential on this center.
   24          1
                                   No pseudopotential on this center.
   25          6
                                   No pseudopotential on this center.
   26          6
                                   No pseudopotential on this center.
   27          1
                                   No pseudopotential on this center.
   28          1
                                   No pseudopotential on this center.
   29          6
                                   No pseudopotential on this center.
   30          1
                                   No pseudopotential on this center.
   31          1
                                   No pseudopotential on this center.
   32          1
                                   No pseudopotential on this center.
   33          1
                                   No pseudopotential on this center.
   34          1
                                   No pseudopotential on this center.
   35          6
                                   No pseudopotential on this center.
   36          6
                                   No pseudopotential on this center.
   37          1
                                   No pseudopotential on this center.
   38          1
                                   No pseudopotential on this center.
   39          6
                                   No pseudopotential on this center.
   40          1
                                   No pseudopotential on this center.
   41          1
                                   No pseudopotential on this center.
   42          1
                                   No pseudopotential on this center.
   43          1
                                   No pseudopotential on this center.
   44          1
                                   No pseudopotential on this center.
   45          6
                                   No pseudopotential on this center.
   46          6
                                   No pseudopotential on this center.
   47          1
                                   No pseudopotential on this center.
   48          1
                                   No pseudopotential on this center.
   49          6
                                   No pseudopotential on this center.
   50          1
                                   No pseudopotential on this center.
   51          1
                                   No pseudopotential on this center.
   52          1
                                   No pseudopotential on this center.
   53          1
                                   No pseudopotential on this center.
   54          1
                                   No pseudopotential on this center.
 ======================================================================================================
   446 basis functions,   811 primitive gaussians,   465 cartesian basis functions
    87 alpha electrons       87 beta electrons
       nuclear repulsion energy      1909.2181850811 Hartrees.
 NAtoms=   54 NActive=   54 NUniq=   54 SFac= 1.00D+00 NAtFMM=   60 NAOKFM=F Big=F
 Integral buffers will be    131072 words long.
 Raffenetti 2 integral format.
 Two-electron integral symmetry is turned off.
 One-electron integrals computed using PRISM.
   1 Symmetry operations used in ECPInt.
 ECPInt:  NShTT=   17766 NPrTT=   79872 LenC2=   15034 LenP2D=   42289.
 LDataN:  DoStor=T MaxTD1= 4 Len=   56
 NBasis=   446 RedAO= T EigKep=  2.75D-03  NBF=   446
 NBsUse=   446 1.00D-06 EigRej= -1.00D+00 NBFU=   446
 ExpMin= 1.43D-01 ExpMax= 5.74D+05 ExpMxC= 5.74D+03 IAcc=3 IRadAn=         5 AccDes= 0.00D+00
 Harris functional with IExCor=20419 and IRadAn=       5 diagonalized for initial guess.
 HarFok:  IExCor=20419 AccDes= 0.00D+00 IRadAn=         5 IDoV= 1 UseB2=F ITyADJ=14
 ICtDFT=  3500011 ScaDFX=  1.000000  1.000000  1.000000  1.000000
 FoFCou: FMM=F IPFlag=           0 FMFlag=      100000 FMFlg1=           0
         NFxFlg=           0 DoJE=T BraDBF=F KetDBF=T FulRan=T
         wScrn=  0.000000 ICntrl=       500 IOpCl=  0 I1Cent=   200000004 NGrid=           0
         NMat0=    1 NMatS0=      1 NMatT0=    0 NMatD0=    1 NMtDS0=    0 NMtDT0=    0
 Symmetry not used in FoFCou.
 Requested convergence on RMS density matrix=1.00D-08 within  32 cycles.
 Requested convergence on MAX density matrix=1.00D-06.
 Requested convergence on             energy=1.00D-06.
 No special actions if energy rises.
 Integral accuracy reduced to 1.0D-05 until final iterations.
 Initial convergence to 1.0D-05 achieved.  Increase integral accuracy.
 SCF Done:  E(RCAM-B3LYP) =  -3257.24839733     A.U. after   13 cycles
            NFock= 13  Conv=0.18D-08     -V/T= 2.0015
 QCSCF skips out because SCF is already converged.
 DoSCS=F DFT=T ScalE2(SS,OS)=  1.000000  1.000000
 Range of M.O.s used for correlation:     1   446
 NBasis=   446 NAE=    87 NBE=    87 NFC=     0 NFV=     0
 NROrb=    446 NOA=    87 NOB=    87 NVA=   359 NVB=   359
   1 Symmetry operations used in ECPInt.
 ECPInt:  NShTT=   17766 NPrTT=   79872 LenC2=   15034 LenP2D=   42289.
 LDataN:  DoStor=T MaxTD1= 5 Len=  102
 Number of processors reduced to  21 by ecpmxn.
 Symmetrizing basis deriv contribution to polar:
 IMax=3 JMax=2 DiffMx= 0.00D+00
 G2DrvN: will do    55 centers at a time, making    1 passes.
 Calling FoFCou, ICntrl=  3107 FMM=F I1Cent=   0 AccDes= 0.00D+00.
 End of G2Drv F.D. properties file   721 does not exist.
 End of G2Drv F.D. properties file   722 does not exist.
 End of G2Drv F.D. properties file   788 does not exist.
          IDoAtm=11111111111111111111111111111111111111111111111111
          IDoAtm=1111
          Differentiating once with respect to nuclear coordinates.
 CalDSu exits because no D1Ps are significant.
          There are   165 degrees of freedom in the 1st order CPHF.  IDoFFX=6 NUNeed=     0.
    159 vectors produced by pass  0 Test12= 3.12D-14 1.00D-09 XBig12= 6.50D-02 4.01D-02.
 AX will form   159 AO Fock derivatives at one time.
    159 vectors produced by pass  1 Test12= 3.12D-14 1.00D-09 XBig12= 2.99D-03 4.46D-03.
    159 vectors produced by pass  2 Test12= 3.12D-14 1.00D-09 XBig12= 2.94D-05 5.94D-04.
    159 vectors produced by pass  3 Test12= 3.12D-14 1.00D-09 XBig12= 2.16D-07 4.86D-05.
    159 vectors produced by pass  4 Test12= 3.12D-14 1.00D-09 XBig12= 9.69D-10 2.74D-06.
    159 vectors produced by pass  5 Test12= 3.12D-14 1.00D-09 XBig12= 3.20D-12 1.41D-07.
     53 vectors produced by pass  6 Test12= 3.12D-14 1.00D-09 XBig12= 9.64D-15 8.66D-09.
 InvSVY:  IOpt=1 It=  1 EMax= 2.50D-16
 Solved reduced A of dimension  1007 with   165 vectors.
 End of Minotr F.D. properties file   721 does not exist.
 End of Minotr F.D. properties file   722 does not exist.
 End of Minotr F.D. properties file   788 does not exist.

 **********************************************************************

            Population analysis using the SCF density.

 **********************************************************************

 Alpha  occ. eigenvalues -- -482.56913 -61.65086 -56.21861 -56.21835 -56.21827
 Alpha  occ. eigenvalues --  -14.54029 -10.33514 -10.32844 -10.30355 -10.30174
 Alpha  occ. eigenvalues --  -10.29380 -10.28521 -10.26845 -10.26715 -10.26091
 Alpha  occ. eigenvalues --  -10.26038 -10.25706 -10.24923 -10.24498 -10.24183
 Alpha  occ. eigenvalues --  -10.24079 -10.23546  -8.43146  -6.44110  -6.44076
 Alpha  occ. eigenvalues --   -6.44050  -2.56406  -2.56400  -2.56379  -2.56352
 Alpha  occ. eigenvalues --   -2.56349  -1.10706  -0.92363  -0.90278  -0.89527
 Alpha  occ. eigenvalues --   -0.88347  -0.84790  -0.82959  -0.82484  -0.79334
 Alpha  occ. eigenvalues --   -0.75623  -0.74068  -0.73133  -0.69609  -0.67816
 Alpha  occ. eigenvalues --   -0.67030  -0.66234  -0.65729  -0.65556  -0.60552
 Alpha  occ. eigenvalues --   -0.60233  -0.58352  -0.57760  -0.55595  -0.54860
 Alpha  occ. eigenvalues --   -0.53979  -0.52007  -0.51597  -0.50687  -0.49872
 Alpha  occ. eigenvalues --   -0.49131  -0.48915  -0.48625  -0.48356  -0.47872
 Alpha  occ. eigenvalues --   -0.46518  -0.45578  -0.45331  -0.44752  -0.43930
 Alpha  occ. eigenvalues --   -0.43351  -0.42855  -0.42509  -0.42351  -0.41648
 Alpha  occ. eigenvalues --   -0.41170  -0.40717  -0.40371  -0.40227  -0.39710
 Alpha  occ. eigenvalues --   -0.39436  -0.39359  -0.38629  -0.38388  -0.21833
 Alpha  occ. eigenvalues --   -0.21764  -0.21700
 Alpha virt. eigenvalues --    0.08913   0.10128   0.11633   0.12271   0.12693
 Alpha virt. eigenvalues --    0.13528   0.14165   0.15262   0.15600   0.16098
 Alpha virt. eigenvalues --    0.16813   0.17428   0.17542   0.18413   0.18528
 Alpha virt. eigenvalues --    0.18994   0.19593   0.19924   0.20226   0.20636
 Alpha virt. eigenvalues --    0.21066   0.21284   0.21527   0.21594   0.22283
 Alpha virt. eigenvalues --    0.22751   0.22951   0.23545   0.23947   0.24244
 Alpha virt. eigenvalues --    0.24500   0.24570   0.25076   0.25781   0.26010
 Alpha virt. eigenvalues --    0.26198   0.26695   0.27069   0.27781   0.28555
 Alpha virt. eigenvalues --    0.29294   0.29379   0.30599   0.30954   0.31564
 Alpha virt. eigenvalues --    0.31800   0.32327   0.32593   0.34110   0.34443
 Alpha virt. eigenvalues --    0.35408   0.36198   0.51026   0.51969   0.53063
 Alpha virt. eigenvalues --    0.53425   0.53814   0.54621   0.55455   0.56720
 Alpha virt. eigenvalues --    0.57220   0.57856   0.58553   0.60029   0.60161
 Alpha virt. eigenvalues --    0.60571   0.60819   0.61521   0.62480   0.62959
 Alpha virt. eigenvalues --    0.63875   0.64466   0.65148   0.65681   0.66219
 Alpha virt. eigenvalues --    0.66725   0.66842   0.67147   0.67668   0.67966
 Alpha virt. eigenvalues --    0.68769   0.69810   0.70168   0.70599   0.71292
 Alpha virt. eigenvalues --    0.71859   0.73324   0.73646   0.74215   0.75616
 Alpha virt. eigenvalues --    0.76136   0.77636   0.78456   0.79154   0.79515
 Alpha virt. eigenvalues --    0.80878   0.81957   0.82487   0.84815   0.85398
 Alpha virt. eigenvalues --    0.85873   0.86700   0.87160   0.87719   0.89082
 Alpha virt. eigenvalues --    0.89618   0.90247   0.90945   0.92034   0.92122
 Alpha virt. eigenvalues --    0.92643   0.93025   0.93541   0.93849   0.94024
 Alpha virt. eigenvalues --    0.94467   0.94762   0.95230   0.95735   0.96292
 Alpha virt. eigenvalues --    0.96732   0.97244   0.97898   0.98026   0.98598
 Alpha virt. eigenvalues --    0.99185   0.99884   1.00194   1.01153   1.01650
 Alpha virt. eigenvalues --    1.02179   1.02491   1.03198   1.03890   1.04636
 Alpha virt. eigenvalues --    1.05140   1.05591   1.07222   1.08039   1.10228
 Alpha virt. eigenvalues --    1.12267   1.13272   1.14514   1.17179   1.18587
 Alpha virt. eigenvalues --    1.18727   1.20434   1.23667   1.25101   1.27424
 Alpha virt. eigenvalues --    1.28998   1.29596   1.33078   1.35903   1.37162
 Alpha virt. eigenvalues --    1.39265   1.40240   1.41939   1.42871   1.44539
 Alpha virt. eigenvalues --    1.45897   1.48370   1.50729   1.51957   1.52202
 Alpha virt. eigenvalues --    1.55157   1.56626   1.56958   1.60227   1.61282
 Alpha virt. eigenvalues --    1.62156   1.63328   1.65995   1.67287   1.68279
 Alpha virt. eigenvalues --    1.70109   1.72174   1.72865   1.73574   1.74470
 Alpha virt. eigenvalues --    1.75681   1.76861   1.77195   1.77724   1.77994
 Alpha virt. eigenvalues --    1.79350   1.81494   1.85023   1.87674   1.88451
 Alpha virt. eigenvalues --    1.88728   1.89683   1.90994   1.91964   1.92802
 Alpha virt. eigenvalues --    1.93066   1.93816   1.95470   1.96567   1.96894
 Alpha virt. eigenvalues --    1.97401   1.99162   1.99483   1.99703   2.00850
 Alpha virt. eigenvalues --    2.01727   2.02542   2.03010   2.04259   2.07569
 Alpha virt. eigenvalues --    2.10173   2.11308   2.12455   2.12651   2.12973
 Alpha virt. eigenvalues --    2.13226   2.13613   2.13761   2.14140   2.14518
 Alpha virt. eigenvalues --    2.14929   2.15346   2.15561   2.16653   2.17504
 Alpha virt. eigenvalues --    2.18260   2.18558   2.19301   2.19513   2.20154
 Alpha virt. eigenvalues --    2.20465   2.23825   2.24585   2.26039   2.26591
 Alpha virt. eigenvalues --    2.27114   2.28244   2.29158   2.29630   2.30708
 Alpha virt. eigenvalues --    2.31536   2.31859   2.32802   2.33757   2.34437
 Alpha virt. eigenvalues --    2.35593   2.36540   2.37381   2.37830   2.38356
 Alpha virt. eigenvalues --    2.39572   2.40044   2.40422   2.41427   2.42107
 Alpha virt. eigenvalues --    2.43650   2.45323   2.47082   2.47441   2.48963
 Alpha virt. eigenvalues --    2.49623   2.50478   2.51094   2.51992   2.53081
 Alpha virt. eigenvalues --    2.54103   2.55206   2.56105   2.57728   2.60650
 Alpha virt. eigenvalues --    2.61423   2.63072   2.63684   2.66373   2.66884
 Alpha virt. eigenvalues --    2.69452   2.71105   2.72834   2.73145   2.73979
 Alpha virt. eigenvalues --    2.76006   2.76932   2.78475   2.78680   2.79527
 Alpha virt. eigenvalues --    2.79934   2.81104   2.81653   2.82348   2.82974
 Alpha virt. eigenvalues --    2.83379   2.84361   2.84444   2.86032   2.87741
 Alpha virt. eigenvalues --    2.89084   2.90117   2.90841   2.91249   2.91833
 Alpha virt. eigenvalues --    2.93069   2.93592   2.94505   2.94854   2.95426
 Alpha virt. eigenvalues --    2.96443   2.96741   2.97419   2.97513   2.98237
 Alpha virt. eigenvalues --    2.98641   2.98954   2.99362   2.99554   3.00397
 Alpha virt. eigenvalues --    3.01960   3.02679   3.02832   3.03584   3.05031
 Alpha virt. eigenvalues --    3.06739   3.07677   3.24064   3.26685   3.27212
 Alpha virt. eigenvalues --    3.27416   3.31197   3.33263   3.34778   3.36031
 Alpha virt. eigenvalues --    3.36366   3.36985   3.37411   3.38851   3.40411
 Alpha virt. eigenvalues --    3.40793   3.41295   3.41680   3.43844   3.45898
 Alpha virt. eigenvalues --    3.48135   3.49313   3.51629   3.53106   3.53305
 Alpha virt. eigenvalues --    3.54439   3.55933   3.56123   3.56651   3.57854
 Alpha virt. eigenvalues --    3.60028   3.61444   3.62370   3.62833   3.64077
 Alpha virt. eigenvalues --    3.65641   3.66520   3.67708   8.70103
          Condensed to atoms (all electrons):
 Mulliken charges:
               1
     1  N   -0.407462
     2  C   -0.074752
     3  H    0.200816
     4  H    0.113335
     5  C   -0.049399
     6  H    0.147196
     7  H    0.127662
     8  C   -0.064793
     9  H    0.130992
    10  H    0.121200
    11  C   -0.072419
    12  H    0.106865
    13  H    0.186877
    14  Br  -0.762683
    15  C   -0.194206
    16  C   -0.186553
    17  H    0.155366
    18  H    0.073672
    19  C   -0.315289
    20  H    0.150494
    21  H    0.074128
    22  H    0.104639
    23  H    0.086485
    24  H    0.121488
    25  C   -0.204619
    26  C   -0.186695
    27  H    0.109883
    28  H    0.177655
    29  C   -0.316195
    30  H    0.083872
    31  H    0.097373
    32  H    0.099843
    33  H    0.136294
    34  H    0.104210
    35  C   -0.195823
    36  C   -0.194349
    37  H    0.086216
    38  H    0.114075
    39  C   -0.314700
    40  H    0.089746
    41  H    0.158525
    42  H    0.111516
    43  H    0.105474
    44  H    0.091031
    45  C   -0.202326
    46  C   -0.183753
    47  H    0.112599
    48  H    0.122533
    49  C   -0.315011
    50  H    0.101397
    51  H    0.105589
    52  H    0.114060
    53  H    0.110433
    54  H    0.107487
 Sum of Mulliken charges =  -0.00000
 Mulliken charges with hydrogens summed into heavy atoms:
               1
     1  N   -0.407462
     2  C    0.239399
     5  C    0.225458
     8  C    0.187399
    11  C    0.221323
    14  Br  -0.762683
    15  C    0.034832
    16  C    0.038069
    19  C   -0.002677
    25  C    0.082919
    26  C   -0.005451
    29  C    0.024153
    35  C    0.004468
    36  C    0.053922
    39  C   -0.006679
    45  C    0.032805
    46  C    0.023233
    49  C    0.016970
 APT charges:
               1
     1  N   -0.077708
     2  C   -0.644406
     3  H    0.335081
     4  H    0.366223
     5  C   -0.642011
     6  H    0.422410
     7  H    0.375676
     8  C   -0.528900
     9  H    0.317286
    10  H    0.351542
    11  C   -0.558907
    12  H    0.289692
    13  H    0.359980
    14  Br  -0.685122
    15  C   -0.650418
    16  C   -0.658584
    17  H    0.413449
    18  H    0.262212
    19  C   -1.521126
    20  H    0.406147
    21  H    0.261584
    22  H    0.838555
    23  H    0.298421
    24  H    0.433432
    25  C   -0.714982
    26  C   -0.624331
    27  H    0.421911
    28  H    0.309965
    29  C   -1.534403
    30  H    0.332302
    31  H    0.274842
    32  H    0.797956
    33  H    0.359706
    34  H    0.437824
    35  C   -0.576762
    36  C   -0.737094
    37  H    0.307647
    38  H    0.302564
    39  C   -1.541303
    40  H    0.375091
    41  H    0.371691
    42  H    0.925004
    43  H    0.320987
    44  H    0.341083
    45  C   -0.578899
    46  C   -0.768194
    47  H    0.296409
    48  H    0.330412
    49  C   -1.440733
    50  H    0.362188
    51  H    0.391698
    52  H    0.828584
    53  H    0.346729
    54  H    0.317600
 Sum of APT charges =  -0.00000
 APT charges with hydrogens summed into heavy atoms:
               1
     1  N   -0.077708
     2  C    0.056898
     5  C    0.156074
     8  C    0.139929
    11  C    0.090764
    14  Br  -0.685122
    15  C    0.025243
    16  C    0.009147
    19  C    0.049282
    25  C    0.016893
    26  C   -0.017187
    29  C    0.061083
    35  C    0.033450
    36  C    0.009688
    39  C    0.045771
    45  C    0.047922
    46  C   -0.014308
    49  C    0.052180
 Electronic spatial extent (au):  <R**2>=           9540.6614
 Charge=              0.0000 electrons
 Dipole moment (field-independent basis, Debye):
    X=             -1.7887    Y=            -12.1530    Z=             -2.7809  Tot=             12.5947
 Quadrupole moment (field-independent basis, Debye-Ang):
   XX=           -127.2740   YY=           -183.6441   ZZ=           -129.4161
   XY=             -6.0612   XZ=             -0.8719   YZ=            -13.1223
 Traceless Quadrupole moment (field-independent basis, Debye-Ang):
   XX=             19.5041   YY=            -36.8660   ZZ=             17.3620
   XY=             -6.0612   XZ=             -0.8719   YZ=            -13.1223
 Octapole moment (field-independent basis, Debye-Ang**2):
  XXX=             92.0214  YYY=           -761.4641  ZZZ=            -37.4048  XYY=             -2.2207
  XXY=           -160.4925  XXZ=             -5.5487  XZZ=             30.0638  YZZ=           -182.7447
  YYZ=            -88.5236  XYZ=             -9.8745
 Hexadecapole moment (field-independent basis, Debye-Ang**3):
 XXXX=          -3107.7987 YYYY=          -6566.4875 ZZZZ=          -3406.8994 XXXY=            244.7287
 XXXZ=           -312.8307 YYYX=            140.7252 YYYZ=           -735.1572 ZZZX=           -318.3357
 ZZZY=           -435.7777 XXYY=          -1404.7964 XXZZ=          -1065.2833 YYZZ=          -1524.7690
 XXYZ=           -125.2449 YYXZ=           -140.3801 ZZXY=             91.9572
 N-N= 1.909218185081D+03 E-N=-1.155642890566D+04  KE= 3.252394058701D+03
  Exact polarizability:   0.000   0.000   0.000   0.000   0.000   0.000
 Approx polarizability: 218.096   1.485 230.660  -0.930   2.017 220.493
   1 Symmetry operations used in ECPInt.
 ECPInt:  NShTT=   17766 NPrTT=   79872 LenC2=   15034 LenP2D=   42289.
 LDataN:  DoStor=T MaxTD1= 6 Len=  172
 Calling FoFJK, ICntrl=    100147 FMM=F ISym2X=0 I1Cent= 0 IOpClX= 0 NMat=1 NMatS=1 NMatT=0.
 -------------------------------------------------------------------
 Center     Atomic                   Forces (Hartrees/Bohr)
 Number     Number              X              Y              Z
 -------------------------------------------------------------------
      1        7          -0.000000408   -0.000000223   -0.000000064
      2        6          -0.000000005   -0.000000371    0.000000293
      3        1          -0.000000528   -0.000000039    0.000000350
      4        1           0.000000133    0.000000093   -0.000000457
      5        6           0.000001026   -0.000000540    0.000000165
      6        1           0.000000001   -0.000000133   -0.000000392
      7        1           0.000000445   -0.000000367    0.000000205
      8        6           0.000000348    0.000000763   -0.000000121
      9        1           0.000000325    0.000000600    0.000000237
     10        1           0.000000182   -0.000000036    0.000000267
     11        6           0.000000512    0.000000278    0.000000064
     12        1          -0.000000061    0.000000426    0.000000247
     13        1          -0.000000391    0.000000075    0.000000108
     14       35          -0.000000916    0.000000270   -0.000000314
     15        6          -0.000000128   -0.000000772    0.000000153
     16        6          -0.000000053   -0.000000093   -0.000000644
     17        1          -0.000000608    0.000000295   -0.000000007
     18        1          -0.000000193   -0.000000417   -0.000000254
     19        6          -0.000000531   -0.000000075    0.000000329
     20        1          -0.000000483    0.000000476    0.000000089
     21        1          -0.000000293    0.000000351    0.000000068
     22        1          -0.000000437    0.000000041   -0.000000277
     23        1          -0.000000501   -0.000000610   -0.000000407
     24        1          -0.000000692   -0.000000376   -0.000000264
     25        6           0.000000380    0.000000578   -0.000000864
     26        6          -0.000000439    0.000001858    0.000001175
     27        1          -0.000000583    0.000000387    0.000000665
     28        1          -0.000000422    0.000000854   -0.000000047
     29        6          -0.000000435    0.000000271   -0.000000493
     30        1           0.000000149    0.000000386    0.000000343
     31        1           0.000000386    0.000001038   -0.000000279
     32        1           0.000000013    0.000001287    0.000000432
     33        1          -0.000000558    0.000001653   -0.000000002
     34        1          -0.000000624    0.000001031    0.000000474
     35        6           0.000000420   -0.000000678   -0.000000289
     36        6          -0.000000822   -0.000000210    0.000000002
     37        1          -0.000000246   -0.000001042   -0.000000213
     38        1          -0.000000395   -0.000000438   -0.000000239
     39        6          -0.000000596   -0.000000993    0.000000291
     40        1          -0.000000600   -0.000000773   -0.000000160
     41        1          -0.000000535   -0.000000360   -0.000000433
     42        1          -0.000000594   -0.000001175   -0.000000539
     43        1          -0.000000572   -0.000000904   -0.000000867
     44        1          -0.000000503   -0.000001453   -0.000000436
     45        6           0.000000295   -0.000000147   -0.000000013
     46        6           0.000001087    0.000000514    0.000000303
     47        1           0.000000806    0.000000019    0.000000429
     48        1           0.000000503    0.000000248   -0.000000007
     49        6           0.000000710   -0.000000285    0.000000301
     50        1           0.000001025   -0.000000555    0.000000341
     51        1           0.000000842   -0.000000583    0.000000053
     52        1           0.000001460   -0.000000386    0.000000235
     53        1           0.000001373    0.000000332   -0.000000133
     54        1           0.000001732   -0.000000089    0.000000597
 -------------------------------------------------------------------
 Cartesian Forces:  Max     0.000001858 RMS     0.000000576
 FormGI is forming the generalized inverse of G from B-inverse, IUseBI=4.

 GradGradGradGradGradGradGradGradGradGradGradGradGradGradGradGradGradGrad
 Berny optimization.
 Internal  Forces:  Max     0.000000708 RMS     0.000000175
 Search for a local minimum.
 Step number   1 out of a maximum of  321
 All quantities printed in internal units (Hartrees-Bohrs-Radians)
 Mixed Optimization -- En-DIIS/RFO-DIIS
 Second derivative matrix not updated -- analytic derivatives used.
 ITU=  0
     Eigenvalues ---    0.00080   0.00150   0.00195   0.00209   0.00230
     Eigenvalues ---    0.00232   0.00238   0.00260   0.00284   0.00287
     Eigenvalues ---    0.00295   0.00304   0.00332   0.00409   0.00589
     Eigenvalues ---    0.00697   0.00844   0.00971   0.01950   0.02903
     Eigenvalues ---    0.03253   0.03386   0.03440   0.03450   0.03522
     Eigenvalues ---    0.03609   0.03765   0.03830   0.03852   0.03879
     Eigenvalues ---    0.03927   0.03950   0.03993   0.04006   0.04013
     Eigenvalues ---    0.04043   0.04101   0.04118   0.04133   0.04197
     Eigenvalues ---    0.04317   0.04348   0.04409   0.04537   0.04658
     Eigenvalues ---    0.04669   0.04671   0.04673   0.04704   0.04707
     Eigenvalues ---    0.04729   0.04753   0.05390   0.06001   0.06285
     Eigenvalues ---    0.06785   0.06856   0.07097   0.07126   0.07271
     Eigenvalues ---    0.07454   0.07487   0.07541   0.07690   0.07770
     Eigenvalues ---    0.07877   0.08212   0.08980   0.09910   0.10232
     Eigenvalues ---    0.10309   0.10511   0.12013   0.12305   0.12571
     Eigenvalues ---    0.12597   0.12639   0.12684   0.12750   0.12965
     Eigenvalues ---    0.13722   0.13755   0.13789   0.13833   0.13907
     Eigenvalues ---    0.14079   0.15490   0.16283   0.16289   0.16311
     Eigenvalues ---    0.16364   0.16917   0.17502   0.17833   0.18261
     Eigenvalues ---    0.18569   0.19938   0.21965   0.22055   0.22562
     Eigenvalues ---    0.22817   0.23109   0.25123   0.25610   0.26286
     Eigenvalues ---    0.28104   0.28422   0.28517   0.29046   0.29478
     Eigenvalues ---    0.29800   0.29942   0.30316   0.30692   0.31207
     Eigenvalues ---    0.31462   0.31609   0.32203   0.33000   0.33229
     Eigenvalues ---    0.33349   0.33398   0.33492   0.33510   0.33609
     Eigenvalues ---    0.33775   0.33935   0.34015   0.34055   0.34069
     Eigenvalues ---    0.34082   0.34187   0.34200   0.34283   0.34335
     Eigenvalues ---    0.34362   0.34403   0.34415   0.34473   0.34497
     Eigenvalues ---    0.34508   0.34530   0.34562   0.34604   0.34765
     Eigenvalues ---    0.34868   0.35029   0.35077   0.35212   0.35219
     Eigenvalues ---    0.35257   0.35269   0.35829   0.37977   0.38137
     Eigenvalues ---    0.39356
 RFO step:  Lambda= 0.00000000D+00 EMin= 8.02681071D-04
 Linear search not attempted -- first point.
 Iteration  1 RMS(Cart)=  0.00002414 RMS(Int)=  0.00000000
 Iteration  2 RMS(Cart)=  0.00000000 RMS(Int)=  0.00000000
 Variable       Old X    -DE/DX   Delta X   Delta X   Delta X     New X
                                 (Linear)    (Quad)   (Total)
    R1        2.89016   0.00000   0.00000   0.00000   0.00000   2.89016
    R2        2.84674   0.00000   0.00000  -0.00000  -0.00000   2.84674
    R3        2.87436  -0.00000   0.00000  -0.00000  -0.00000   2.87436
    R4        2.88159   0.00000   0.00000   0.00000   0.00000   2.88159
    R5        2.07582   0.00000   0.00000  -0.00000  -0.00000   2.07582
    R6        2.06516  -0.00000   0.00000  -0.00000  -0.00000   2.06515
    R7        2.88126   0.00000   0.00000  -0.00000  -0.00000   2.88126
    R8        4.65322   0.00000   0.00000   0.00001   0.00001   4.65323
    R9        2.05749   0.00000   0.00000   0.00000   0.00000   2.05749
   R10        2.06709   0.00000   0.00000   0.00000   0.00000   2.06709
   R11        2.87820  -0.00000   0.00000  -0.00000  -0.00000   2.87820
   R12        2.06157  -0.00000   0.00000  -0.00000  -0.00000   2.06157
   R13        2.06732   0.00000   0.00000   0.00000   0.00000   2.06732
   R14        2.88681  -0.00000   0.00000  -0.00000  -0.00000   2.88681
   R15        2.06286  -0.00000   0.00000  -0.00000  -0.00000   2.06286
   R16        2.06724  -0.00000   0.00000  -0.00000  -0.00000   2.06724
   R17        2.86867  -0.00000   0.00000  -0.00000  -0.00000   2.86867
   R18        4.74138   0.00000   0.00000  -0.00001  -0.00001   4.74137
   R19        2.89352   0.00000   0.00000   0.00000   0.00000   2.89352
   R20        2.06328   0.00000   0.00000   0.00000   0.00000   2.06329
   R21        2.07397   0.00000   0.00000   0.00000   0.00000   2.07398
   R22        2.88176  -0.00000   0.00000  -0.00000  -0.00000   2.88176
   R23        2.06909   0.00000   0.00000   0.00000   0.00000   2.06909
   R24        2.07509  -0.00000   0.00000  -0.00000  -0.00000   2.07509
   R25        2.06549   0.00000   0.00000   0.00000   0.00000   2.06549
   R26        2.07008   0.00000   0.00000   0.00000   0.00000   2.07008
   R27        2.06669  -0.00000   0.00000  -0.00000  -0.00000   2.06669
   R28        2.89120  -0.00000   0.00000  -0.00000  -0.00000   2.89120
   R29        2.06744   0.00000   0.00000   0.00000   0.00000   2.06744
   R30        2.07116   0.00000   0.00000   0.00000   0.00000   2.07116
   R31        2.88300  -0.00000   0.00000  -0.00000  -0.00000   2.88300
   R32        2.07557   0.00000   0.00000   0.00000   0.00000   2.07558
   R33        2.07322   0.00000   0.00000   0.00000   0.00000   2.07323
   R34        2.06563   0.00000   0.00000   0.00000   0.00000   2.06563
   R35        2.06610   0.00000   0.00000   0.00000   0.00000   2.06610
   R36        2.06766   0.00000   0.00000   0.00000   0.00000   2.06767
   R37        2.89647   0.00000   0.00000   0.00000   0.00000   2.89647
   R38        2.07199   0.00000   0.00000   0.00000   0.00000   2.07199
   R39        2.06196   0.00000   0.00000   0.00000   0.00000   2.06196
   R40        2.88160   0.00000   0.00000   0.00000   0.00000   2.88160
   R41        2.07351   0.00000   0.00000   0.00000   0.00000   2.07351
   R42        2.06984   0.00000   0.00000   0.00000   0.00000   2.06984
   R43        2.06504  -0.00000   0.00000  -0.00000  -0.00000   2.06504
   R44        2.06827   0.00000   0.00000   0.00000   0.00000   2.06827
   R45        2.06970   0.00000   0.00000   0.00000   0.00000   2.06971
   R46        2.89360  -0.00000   0.00000  -0.00000  -0.00000   2.89359
   R47        2.06792   0.00000   0.00000   0.00000   0.00000   2.06792
   R48        2.06788   0.00000   0.00000   0.00000   0.00000   2.06788
   R49        2.88282   0.00000   0.00000   0.00000   0.00000   2.88282
   R50        2.07241   0.00000   0.00000   0.00000   0.00000   2.07242
   R51        2.07206   0.00000   0.00000   0.00000   0.00000   2.07206
   R52        2.06471   0.00000   0.00000   0.00000   0.00000   2.06471
   R53        2.06760   0.00000   0.00000   0.00000   0.00000   2.06760
   R54        2.06784   0.00000   0.00000   0.00000   0.00000   2.06784
    A1        1.91048  -0.00000   0.00000  -0.00000  -0.00000   1.91048
    A2        1.87435   0.00000   0.00000  -0.00000  -0.00000   1.87435
    A3        1.95546   0.00000   0.00000   0.00000   0.00000   1.95546
    A4        1.90390   0.00000   0.00000   0.00000   0.00000   1.90390
    A5        1.95516   0.00000   0.00000   0.00000   0.00000   1.95516
    A6        1.86156  -0.00000   0.00000  -0.00000  -0.00000   1.86156
    A7        1.83914   0.00000   0.00000   0.00000   0.00000   1.83914
    A8        1.83815  -0.00000   0.00000  -0.00000  -0.00000   1.83815
    A9        2.05987  -0.00000   0.00000  -0.00000  -0.00000   2.05987
   A10        1.91076  -0.00000   0.00000   0.00000   0.00000   1.91076
   A11        1.91256   0.00000   0.00000  -0.00000  -0.00000   1.91255
   A12        1.89860   0.00000   0.00000   0.00000   0.00000   1.89861
   A13        2.79611  -0.00000   0.00000  -0.00003  -0.00003   2.79609
   A14        1.86165  -0.00000   0.00000  -0.00000  -0.00000   1.86165
   A15        1.84839  -0.00000   0.00000  -0.00000  -0.00000   1.84839
   A16        2.03822   0.00000   0.00000   0.00000   0.00000   2.03822
   A17        1.87414   0.00000   0.00000   0.00000   0.00000   1.87414
   A18        1.91143  -0.00000   0.00000  -0.00000  -0.00000   1.91143
   A19        1.92243  -0.00000   0.00000   0.00000   0.00000   1.92243
   A20        1.85101   0.00000   0.00000   0.00000   0.00000   1.85101
   A21        1.85347   0.00000   0.00000   0.00000   0.00000   1.85347
   A22        2.02551  -0.00000   0.00000  -0.00000  -0.00000   2.02551
   A23        1.87998  -0.00000   0.00000   0.00000   0.00000   1.87998
   A24        1.91758  -0.00000   0.00000  -0.00000  -0.00000   1.91758
   A25        1.92942   0.00000   0.00000  -0.00000  -0.00000   1.92942
   A26        1.84174  -0.00000   0.00000  -0.00000  -0.00000   1.84174
   A27        1.84736  -0.00000   0.00000  -0.00000  -0.00000   1.84736
   A28        2.05699   0.00000   0.00000   0.00000   0.00000   2.05699
   A29        1.92247   0.00000   0.00000   0.00000   0.00000   1.92247
   A30        1.93422  -0.00000   0.00000  -0.00000  -0.00000   1.93422
   A31        1.85800  -0.00000   0.00000   0.00000   0.00000   1.85800
   A32        2.44217  -0.00000   0.00000   0.00000   0.00000   2.44217
   A33        0.94479   0.00000   0.00000   0.00000   0.00000   0.94479
   A34        1.89725  -0.00000   0.00000  -0.00000  -0.00000   1.89725
   A35        1.89819   0.00000   0.00000   0.00000   0.00000   1.89819
   A36        1.96900   0.00000   0.00000   0.00000   0.00000   1.96900
   A37        1.87052  -0.00000   0.00000  -0.00000  -0.00000   1.87052
   A38        1.91788   0.00000   0.00000   0.00000   0.00000   1.91788
   A39        1.90833   0.00000   0.00000   0.00000   0.00000   1.90833
   A40        1.95803  -0.00000   0.00000  -0.00000  -0.00000   1.95803
   A41        1.87844  -0.00000   0.00000  -0.00000  -0.00000   1.87844
   A42        1.91994   0.00000   0.00000   0.00000   0.00000   1.91994
   A43        1.91260  -0.00000   0.00000  -0.00000  -0.00000   1.91260
   A44        1.91662  -0.00000   0.00000   0.00000   0.00000   1.91662
   A45        1.87604   0.00000   0.00000   0.00000   0.00000   1.87604
   A46        1.93933  -0.00000   0.00000  -0.00000  -0.00000   1.93933
   A47        1.94747   0.00000   0.00000   0.00000   0.00000   1.94747
   A48        1.93171   0.00000   0.00000   0.00000   0.00000   1.93171
   A49        1.88013   0.00000   0.00000  -0.00000  -0.00000   1.88013
   A50        1.87844   0.00000   0.00000   0.00000   0.00000   1.87844
   A51        1.88409   0.00000   0.00000   0.00000   0.00000   1.88409
   A52        1.92612  -0.00000   0.00000  -0.00000  -0.00000   1.92612
   A53        1.91821   0.00000   0.00000  -0.00000  -0.00000   1.91821
   A54        1.95468   0.00000   0.00000   0.00000   0.00000   1.95468
   A55        1.90310  -0.00000   0.00000  -0.00000  -0.00000   1.90310
   A56        1.91876   0.00000   0.00000   0.00000   0.00000   1.91877
   A57        1.84068  -0.00000   0.00000   0.00000   0.00000   1.84068
   A58        1.95186   0.00000   0.00000   0.00000   0.00000   1.95187
   A59        1.92314  -0.00000   0.00000  -0.00000  -0.00000   1.92314
   A60        1.90526  -0.00000   0.00000  -0.00000  -0.00000   1.90526
   A61        1.91475  -0.00000   0.00000   0.00000   0.00000   1.91475
   A62        1.91160  -0.00000   0.00000   0.00000   0.00000   1.91160
   A63        1.85464   0.00000   0.00000  -0.00000  -0.00000   1.85464
   A64        1.94198   0.00000   0.00000   0.00000   0.00000   1.94198
   A65        1.93394  -0.00000   0.00000   0.00000   0.00000   1.93394
   A66        1.93869  -0.00000   0.00000   0.00000   0.00000   1.93869
   A67        1.88854  -0.00000   0.00000  -0.00000  -0.00000   1.88854
   A68        1.88179  -0.00000   0.00000  -0.00000  -0.00000   1.88179
   A69        1.87646  -0.00000   0.00000  -0.00000  -0.00000   1.87646
   A70        1.89183   0.00000   0.00000   0.00000   0.00000   1.89183
   A71        1.94689  -0.00000   0.00000   0.00000   0.00000   1.94689
   A72        1.94929   0.00000   0.00000  -0.00000  -0.00000   1.94929
   A73        1.91258  -0.00000   0.00000  -0.00000  -0.00000   1.91258
   A74        1.89264  -0.00000   0.00000  -0.00000  -0.00000   1.89264
   A75        1.86982   0.00000   0.00000   0.00000   0.00000   1.86982
   A76        1.96161   0.00000   0.00000  -0.00000  -0.00000   1.96161
   A77        1.90943   0.00000   0.00000   0.00000   0.00000   1.90943
   A78        1.89029  -0.00000   0.00000  -0.00000  -0.00000   1.89028
   A79        1.91242  -0.00000   0.00000  -0.00000  -0.00000   1.91242
   A80        1.92872   0.00000   0.00000   0.00000   0.00000   1.92872
   A81        1.85836   0.00000   0.00000   0.00000   0.00000   1.85836
   A82        1.93803  -0.00000   0.00000  -0.00000  -0.00000   1.93803
   A83        1.93902  -0.00000   0.00000  -0.00000  -0.00000   1.93902
   A84        1.94709   0.00000   0.00000   0.00000   0.00000   1.94709
   A85        1.87674   0.00000   0.00000  -0.00000  -0.00000   1.87674
   A86        1.88010   0.00000   0.00000   0.00000   0.00000   1.88010
   A87        1.87986  -0.00000   0.00000  -0.00000  -0.00000   1.87986
   A88        1.92436  -0.00000   0.00000  -0.00000  -0.00000   1.92436
   A89        1.94002   0.00000   0.00000   0.00000   0.00000   1.94002
   A90        1.92881  -0.00000   0.00000  -0.00000  -0.00000   1.92881
   A91        1.90031  -0.00000   0.00000  -0.00000  -0.00000   1.90031
   A92        1.90011   0.00000   0.00000   0.00000   0.00000   1.90011
   A93        1.86889   0.00000   0.00000   0.00000   0.00000   1.86889
   A94        1.96229  -0.00000   0.00000  -0.00000  -0.00000   1.96229
   A95        1.90977   0.00000   0.00000  -0.00000  -0.00000   1.90977
   A96        1.90858   0.00000   0.00000   0.00000   0.00000   1.90859
   A97        1.91295  -0.00000   0.00000  -0.00000  -0.00000   1.91295
   A98        1.91281  -0.00000   0.00000  -0.00000  -0.00000   1.91281
   A99        1.85430  -0.00000   0.00000   0.00000   0.00000   1.85430
   A100       1.93997   0.00000   0.00000   0.00000   0.00000   1.93997
   A101       1.94055  -0.00000   0.00000  -0.00000  -0.00000   1.94055
   A102       1.94110  -0.00000   0.00000  -0.00000  -0.00000   1.94110
   A103       1.88005   0.00000   0.00000   0.00000   0.00000   1.88005
   A104       1.87997  -0.00000   0.00000  -0.00000  -0.00000   1.87997
   A105       1.87938   0.00000   0.00000  -0.00000  -0.00000   1.87938
    D1       -2.84944  -0.00000   0.00000  -0.00001  -0.00001  -2.84945
    D2        1.41415   0.00000   0.00000  -0.00001  -0.00001   1.41414
    D3       -0.70811   0.00000   0.00000  -0.00001  -0.00001  -0.70812
    D4        1.36901  -0.00000   0.00000  -0.00001  -0.00001   1.36900
    D5       -0.65059  -0.00000   0.00000  -0.00001  -0.00001  -0.65060
[...]
 0000794,0.00000849,0.00000745,0.00000330,-0.00000289,-0.00000167,0.000
 00138,-0.00000037,-0.00000155,-0.00000287,-0.00000155,0.00000029,-0.00
 000072,-0.00000306,-0.00006460,-0.00005346,-0.00001711,0.00004124,0.00
 000753,-0.00000030,0.00003751,0.00003157,-0.00004003,-0.00000351,-0.00
 003229,0.00001528,-0.00000760,-0.00000837,0.00000182,-0.00000721,0.000
 00174,0.00001262,-0.00001073,0.00001169,0.00001119,0.00000093,0.000006
 42,0.00000563,0.00000152,-0.00000827,0.00000114,0.00001077,0.00000548,
 -0.00000823,-0.00958233,0.00490411,-0.00821412,-0.10241134,0.06002448,
 -0.12573097,-0.00116662,-0.00262463,-0.00002301,0.00056756,-0.00030410
 ,0.00075505,0.01678532,-0.00993429,0.01176787,-0.01776860,0.00951186,-
 0.01271617,0.11206913,-0.06000380,0.13431606,-0.00021172,0.00034370,0.
 00033180,0.00011059,0.00007476,0.00001730,-0.00003849,0.00000057,0.000
 03010,-0.00000512,0.00000231,0.00000585,0.00096644,0.00051252,0.000290
 15,0.00005232,-0.00001118,-0.00007934,0.00004158,-0.00004847,0.0000078
 2,-0.00008570,0.00004802,-0.00003633,0.00000153,0.00000369,-0.00000364
 ,-0.00000035,-0.00000421,0.00000302,-0.00005341,-0.00003906,0.00007092
 ,-0.00000104,-0.00000607,-0.00000335,0.00000672,0.00000559,-0.00000870
 ,0.00000893,0.00000271,-0.00000923,0.00002220,0.00000338,-0.00000410,-
 0.00002131,0.00001142,0.00000747,0.00000136,-0.00000179,0.00000011,-0.
 00000520,-0.00000093,0.00000258,0.00000725,0.00000189,-0.00000375,0.00
 000122,-0.00000190,0.00000008,0.00000911,-0.00000356,-0.00000520,-0.00
 000220,0.00000117,-0.00000085,-0.00000274,0.00000062,-0.00000137,0.000
 00227,-0.00000269,-0.00000007,0.00001497,-0.00001184,-0.00000192,-0.00
 001032,0.00000965,0.00000862,0.00000065,-0.00000056,-0.00000333,-0.000
 00275,0.00000063,-0.00000023,0.00000650,-0.00000239,0.00000109,-0.0000
 0046,-0.00000388,0.00000398,0.00000554,0.00000306,-0.00000454,0.000000
 33,0.00000112,0.00000180,-0.00000109,-0.00000119,-0.00000044,0.0000006
 0,-0.00000083,-0.00000281,0.00000969,0.00000322,0.00000649,-0.00000659
 ,-0.00000375,-0.00000533,-0.00000543,-0.00000295,-0.00000030,-0.000002
 55,0.00000058,-0.00000250,0.00000124,0.00000261,0.00000247,0.00000117,
 0.00000012,-0.00000125,0.00000041,-0.00000176,-0.00000038,-0.00000126,
 -0.00000064,-0.00000115,-0.00000051,0.00000108,-0.00000062,-0.00000148
 ,-0.00000075,0.00000084,-0.00219621,0.00220468,0.00225791,0.01262013,0
 .01528182,0.00813082,0.00008993,-0.00003808,0.00031219,-0.00013477,0.0
 0012310,-0.00010954,-0.14322484,-0.11488736,-0.06394651,0.00073771,-0.
 00059859,-0.00057146,0.00084375,-0.00046143,-0.00061494,0.15149745,0.0
 0033866,-0.00035914,-0.00039406,-0.00023273,-0.00008388,0.00004305,0.0
 0007407,0.00002537,-0.00004481,0.00001432,-0.00000121,-0.00000617,-0.0
 0117083,-0.00018885,-0.00029211,-0.00003377,-0.00002503,0.00005606,0.0
 0002827,-0.00001905,-0.00007908,0.00008296,-0.00006724,0.00008751,0.00
 002759,0.00001200,0.00000116,-0.00000176,-0.00000076,0.00001724,-0.000
 00567,0.00007512,-0.00010643,0.00004064,0.00000423,0.00000780,0.000004
 05,0.00002063,0.00003402,-0.00000926,-0.00008849,-0.00001738,-0.000016
 75,-0.00000140,0.00001431,0.00002075,0.00001025,-0.00000778,0.00000458
 ,-0.00000519,0.00000170,-0.00001800,0.00000410,-0.00001689,-0.00002042
 ,-0.00000849,-0.00000679,0.00000011,-0.00000450,0.00000269,0.00000577,
 -0.00000015,-0.00000365,0.00000011,-0.00000873,0.00001126,0.00000552,0
 .00000598,0.00000247,0.00000465,-0.00000067,-0.00000052,-0.00000971,0.
 00002051,0.00001288,0.00001920,-0.00003096,-0.00000917,-0.00000102,-0.
 00000597,-0.00000973,-0.00000217,0.00000698,-0.00000436,-0.00001177,0.
 00001149,0.00000363,0.00000004,0.00000477,-0.00000021,0.00000010,0.000
 00131,0.00000049,-0.00000988,-0.00000216,-0.00000823,0.00000316,-0.000
 00064,0.00000078,0.00000298,-0.00000174,-0.00000121,0.00000024,-0.0000
 1867,-0.00003951,-0.00000142,0.00001506,0.00002930,-0.00000995,0.00000
 019,0.00000609,-0.00000360,0.00000715,0.00000048,-0.00000642,-0.000012
 53,-0.00001658,0.00000138,-0.00000203,-0.00000354,0.00000194,-0.000000
 90,-0.00000262,0.00001172,-0.00000534,-0.00000088,-0.00000092,-0.00000
 024,0.00000444,0.00000313,0.00000650,0.00000107,0.00360293,-0.00158430
 ,-0.00223947,-0.01185543,-0.01343227,-0.00618280,-0.00009737,0.0001535
 6,-0.00009314,0.00030913,0.00046126,0.00013915,-0.11345357,-0.18737543
 ,-0.07661958,0.00007451,0.00088617,0.00010473,-0.00015360,0.00015018,0
 .00065770,0.12257301,0.20050228,0.00031169,-0.00037295,-0.00035597,-0.
 00019617,-0.00007990,0.00003160,0.00006385,0.00002009,-0.00004436,0.00
 000911,-0.00000283,-0.00000888,-0.00099574,-0.00071346,0.00029296,0.00
 002953,-0.00003899,-0.00001090,-0.00006302,0.00005804,-0.00003834,0.00
 006045,-0.00005722,0.00007379,0.00002581,0.00002127,-0.00000547,-0.000
 00832,0.00000100,0.00001959,0.00003580,0.00006466,-0.00011233,0.000021
 81,0.00000805,-0.00000212,-0.00000465,0.00001388,0.00002766,-0.0000102
 6,-0.00006435,-0.00000841,-0.00002153,0.00000406,0.00001530,0.00003347
 ,-0.00000775,-0.00001585,0.00000239,-0.00000112,0.00000342,-0.00000469
 ,0.00000010,-0.00001448,-0.00001545,-0.00000239,0.00000402,-0.00000413
 ,0.00000026,0.00000251,-0.00000709,0.00000280,0.00000309,0.00000044,-0
 .00000716,0.00000761,0.00000468,0.00000115,0.00000016,0.00000083,0.000
 00236,-0.00000118,-0.00000612,0.00001736,0.00001102,0.00001574,-0.0000
 2576,-0.00000902,-0.00000095,-0.00000691,-0.00000883,-0.00000162,0.000
 00474,-0.00000535,-0.00000967,0.00000914,0.00000375,-0.00000073,0.0000
 0346,0.00000218,0.00000050,0.00000283,-0.00000046,-0.00000811,-0.00000
 190,-0.00000668,0.00000248,-0.00000076,-0.00000012,0.00000255,-0.00000
 197,-0.00000139,-0.00000419,-0.00001879,-0.00003366,0.00000061,0.00001
 234,0.00002418,-0.00000572,-0.00000115,0.00000866,0.00000018,0.0000098
 5,-0.00000014,-0.00000509,-0.00001131,-0.00001193,0.00000021,-0.000001
 86,-0.00000467,0.00000160,-0.00000038,-0.00000246,0.00000896,-0.000004
 31,-0.00000102,-0.00000009,0.00000167,0.00000209,0.00000262,0.00000466
 ,0.00000215,0.00333631,-0.00190748,-0.00207537,-0.01249814,-0.01297025
 ,-0.00813420,0.00038003,0.00031971,0.00027197,-0.00008678,-0.00023457,
 0.00018732,-0.06285931,-0.07626837,-0.09169695,-0.00053861,0.00054549,
 0.00015347,0.00009263,0.00047613,0.00077575,0.06722877,0.08588764,0.09
 586667,0.00004293,0.00011308,-0.00003384,0.00003386,-0.00000324,-0.000
 01190,-0.00001188,-0.00001420,0.00000621,-0.00000550,0.00000127,-0.000
 00437,-0.00001231,-0.00009247,-0.00022873,-0.00004446,-0.00000367,0.00
 002962,0.00004881,-0.00008310,-0.00015142,-0.00000545,0.00000981,-0.00
 001176,-0.00000730,-0.00000128,-0.00000127,-0.00000396,0.00000413,-0.0
 0000999,0.00001594,-0.00002435,0.00006730,-0.00000919,0.00000123,0.000
 00714,-0.00000256,0.00000167,-0.00001927,0.00000027,0.00003053,-0.0000
 1120,0.00003991,0.00002563,0.00001671,-0.00001929,-0.00000323,0.000000
 63,-0.00001021,-0.00000526,-0.00000693,-0.00001907,-0.00000532,0.00000
 475,0.00002052,0.00001377,0.00001074,-0.00000148,-0.00000395,-0.000001
 71,0.00001273,0.00000148,0.00000301,-0.00000237,0.00000244,-0.00000479
 ,-0.00001399,-0.00000198,-0.00000805,-0.00000222,-0.00000492,-0.000003
 99,-0.00000256,-0.00000161,-0.00000330,-0.00000300,0.00000883,-0.00000
 024,0.00000060,0.00000219,0.00000360,0.00000392,-0.00000409,0.00000319
 ,0.00000201,-0.00000408,-0.00000041,-0.00000078,0.00000005,-0.00000041
 ,-0.00000094,-0.00000139,0.00000084,0.00000290,0.00000063,0.00000204,-
 0.00000034,0.00000069,-0.00000022,-0.00000090,0.00000062,0.00000074,-0
 .00001512,-0.00001336,0.00001716,0.00000603,0.00000015,-0.00000953,0.0
 0001145,0.00000668,-0.00000377,-0.00000113,0.00000139,-0.00000168,-0.0
 0000040,-0.00000086,0.00000713,-0.00000109,-0.00000029,-0.00000186,-0.
 00000222,0.00000268,0.00000340,-0.00000310,0.00000243,0.00000029,0.000
 00003,0.00000126,-0.00000312,0.00000184,-0.00000017,-0.00000056,0.0003
 7194,-0.00050557,-0.00090050,-0.00850899,-0.00999379,0.01415095,0.0000
 5375,0.00011806,-0.00005874,0.00054461,0.00043982,0.00007216,-0.095398
 10,-0.05766320,0.08208296,-0.00128131,0.00286316,0.00225615,0.00017190
 ,-0.00060067,-0.00041695,-0.00781227,-0.00916768,0.01497317,0.09987845
 ,-0.00011205,-0.00000678,0.00014424,0.00004205,0.00002445,-0.00000405,
 -0.00001388,-0.00000398,0.00000847,-0.00000155,0.00000065,0.00000399,0
 .00030658,0.00015634,-0.00014787,0.00001880,0.00001817,-0.00000368,-0.
 00009444,-0.00012589,0.00010209,0.00000210,0.00000211,-0.00001364,-0.0
 0001575,-0.00000770,0.00000013,0.00000787,-0.00000080,-0.00000255,0.00
 001674,-0.00001336,-0.00001429,-0.00002636,0.00000201,0.00000147,-0.00
 001264,-0.00001191,0.00000588,0.00000367,0.00002392,0.00000686,-0.0000
 1351,-0.00001048,-0.00000943,-0.00000013,-0.00000500,0.00000528,0.0000
 0188,0.00000555,0.00000080,0.00001663,-0.00000090,0.00000552,0.0000018
 6,-0.00000066,0.00000077,-0.00000026,0.00000451,-0.00000018,-0.0000073
 1,-0.00000244,0.00000132,0.00000156,0.00000493,-0.00000330,0.00000055,
 -0.00000250,0.00000261,-0.00000096,0.00000112,0.00000011,-0.00000262,-
 0.00000142,-0.00000336,-0.00000571,0.00000072,0.00000524,0.00000127,0.
 00000135,0.00000331,0.00000033,-0.00000167,0.00000135,0.00000174,-0.00
 000112,-0.00000218,0.00000042,0.00000190,-0.00000205,-0.00000004,-0.00
 000049,-0.00000104,0.00000219,-0.00000029,0.00000239,-0.00000084,0.000
 00137,0.00000029,-0.00000014,0.00000004,-0.00000003,0.00000330,0.00000
 974,0.00000576,-0.00000129,-0.00000441,-0.00000355,-0.00000254,-0.0000
 0011,0.00000003,0.00000141,-0.00000318,0.00000008,0.00000086,0.0000018
 6,0.00000250,-0.00000041,0.00000064,0.00000082,0.00000033,-0.00000049,
 -0.00000032,-0.00000217,0.00000094,0.00000067,0.00000032,-0.00000038,-
 0.00000091,-0.00000054,-0.00000066,-0.00000026,0.00054437,0.00175193,-
 0.00014874,0.00892469,0.01171586,-0.01748723,-0.00010481,-0.00010131,0
 .00001466,-0.00020082,-0.00012674,0.00038888,-0.05843394,-0.12339035,0
 .10590886,0.00247815,-0.00211872,-0.00330772,-0.00065887,0.00095958,0.
 00063580,-0.00772851,-0.01155908,0.01794606,0.06158280,0.13051628,-0.0
 0010585,-0.00010619,0.00005849,0.00000573,-0.00000769,-0.00001113,0.00
 000389,0.00001281,-0.00000249,-0.00000108,0.00000024,0.00000780,-0.000
 00527,-0.00018731,0.00026110,0.00000743,0.00004568,-0.00001168,-0.0001
 6743,0.00010896,0.00022898,0.00003731,-0.00000253,-0.00003855,-0.00000
 499,0.00000319,-0.00000949,-0.00000874,-0.00000202,0.00001992,0.000085
 17,-0.00000978,-0.00010337,-0.00003051,0.00000096,-0.00000946,-0.00002
 133,-0.00001598,0.00001314,-0.00001431,0.00000209,0.00002815,-0.000032
 01,-0.00000433,0.00001282,0.00003530,-0.00002545,-0.00001987,-0.000003
 33,0.00001024,0.00000082,0.00002220,-0.00000444,-0.00000469,-0.0000086
 3,-0.00000005,0.00001010,-0.00000402,0.00000534,0.00000001,-0.00002415
 ,0.00000627,0.00001362,0.00000169,-0.00000215,-0.00000007,0.00000614,-
 0.00000293,0.00000029,-0.00000521,0.00000752,0.00000011,-0.00000856,-0
 .00000535,0.00000981,0.00000982,0.00000585,-0.00001361,-0.00000207,0.0
 0000343,0.00000432,-0.00000184,-0.00000098,-0.00000547,-0.00000329,-0.
 00000131,0.00000165,0.00000084,-0.00000470,0.00000265,-0.00000639,-0.0
 0000139,0.00000494,0.00000008,0.00000037,-0.00000167,0.00000024,-0.000
 00174,-0.00000109,-0.00000123,0.00000154,0.00000319,0.00001552,0.00002
 329,0.00000004,-0.00000658,-0.00000305,-0.00000072,-0.00001078,-0.0000
 0874,0.00000525,0.00000649,-0.00000036,0.00000119,0.00000323,0.0000046
 7,-0.00000065,0.00000059,0.00000092,0.00000244,0.00000304,-0.00000302,
 -0.00000330,-0.00000085,-0.00000093,-0.00000082,0.00000057,0.00000022,
 0.00000137,-0.00000413,-0.00000294,0.00000080,0.00007917,0.00153119,0.
 00035885,0.00784992,0.00998510,-0.01497802,0.00001492,-0.00001501,-0.0
 0005683,-0.00039733,-0.00102054,-0.00004368,0.08232569,0.10497445,-0.2
 0004988,0.00218732,-0.00306683,-0.00116729,-0.00030840,-0.00022014,0.0
 0096569,-0.00562793,-0.00705207,0.01175799,-0.09324431,-0.11314553,0.2
 1491289,0.00007085,0.00002587,0.00012166,0.00003619,0.00001392,-0.0000
 2209,-0.00001246,-0.00000955,0.00000690,-0.00000427,-0.00000356,0.0000
 0462,0.00017013,-0.00028483,0.00007249,0.00008975,-0.00020065,-0.00011
 380,-0.00004977,0.00001454,0.00000022,-0.00002868,0.00009059,-0.000030
 52,-0.00000660,0.00000554,-0.00000277,-0.00001089,0.00000138,0.0000082
 7,0.00001004,0.00000599,0.00003189,-0.00001141,-0.00000165,-0.00000123
 ,-0.00000093,-0.00000826,-0.00001029,0.00001516,0.00002420,0.00001957,
 -0.00001926,-0.00001869,-0.00002508,-0.00000472,0.00000323,0.00001459,
 0.00000237,0.00000144,-0.00000111,0.00001205,0.00000475,0.00001565,0.0
 0000115,-0.00000361,-0.00000494,0.00000500,0.00000329,-0.00000357,0.00
 000008,-0.00000203,-0.00000203,0.00000247,0.00000438,-0.00000303,0.000
 00026,0.00000066,0.00000502,-0.00000110,-0.00000104,0.00000076,0.00001
 019,-0.00002489,0.00000584,-0.00000888,0.00002598,-0.00000063,0.000000
 19,0.00000423,0.00000167,-0.00000391,0.00000008,-0.00000301,0.00000692
 ,-0.00000727,0.00000143,0.00000053,-0.00000974,0.00000551,0.00000109,0
 .00000005,-0.00000057,0.00000489,0.00000198,0.00000347,-0.00000249,-0.
 00000246,-0.00000125,-0.00000150,0.00000159,-0.00000038,-0.00001726,-0
 .00000886,0.00000401,0.00000937,-0.00000110,-0.00001014,0.00001055,0.0
 0000921,-0.00001092,-0.00000003,-0.00000984,0.00000420,-0.00000143,0.0
 0000131,0.00000310,-0.00000166,-0.00000018,0.00000636,-0.00000252,0.00
 000293,0.00000285,-0.00000263,0.00000395,0.00000283,0.00000066,-0.0000
 0438,0.00000084,0.00000260,0.00000056,-0.00000399,0.00056949,-0.000958
 54,-0.00042690,-0.01391080,0.00789061,-0.00937076,0.00064939,0.0004977
 9,0.00043590,0.00005045,-0.00000131,0.00008587,-0.19225360,0.08642561,
 -0.10203031,0.00019554,-0.00055479,-0.00014815,-0.00097232,0.00215958,
 0.00290366,-0.01323381,0.00903818,-0.00929005,0.01193909,-0.00652037,0
 .00735825,0.20669650,-0.00015091,0.00003736,-0.00005780,0.00002251,-0.
 00000251,-0.00001049,-0.00000528,-0.00000059,0.00000502,0.00000170,0.0
 0000369,-0.00000078,-0.00001836,0.00011613,-0.00019924,-0.00020513,0.0
 0015857,0.00004906,0.00001058,0.00001090,0.00004853,0.00008767,-0.0000
 6702,-0.00001380,-0.00003300,-0.00002867,0.00000995,0.00001168,0.00000
 245,-0.00002097,0.00002673,-0.00003956,-0.00001837,-0.00000508,-0.0000
 0262,0.00001299,-0.00000646,-0.00000606,-0.00000191,-0.00001794,0.0000
 1739,-0.00000761,0.00002658,0.00002609,0.00003250,-0.00000563,-0.00000
 802,-0.00001285,-0.00001065,0.00000021,-0.00000603,-0.00001472,-0.0000
 0543,-0.00001016,0.00000821,0.00000779,0.00000865,-0.00000335,-0.00000
 485,0.00000137,0.00000245,0.00000395,0.00000693,-0.00000200,-0.0000008
 5,-0.00000173,-0.00000589,-0.00000138,-0.00000689,-0.00000193,-0.00000
 004,-0.00000185,-0.00003439,0.00001915,-0.00000690,0.00000915,-0.00000
 643,-0.00000903,0.,0.00000702,0.00001139,0.00000798,-0.00000408,0.0000
 0737,-0.00000634,0.00000011,-0.00000285,0.00000067,0.00000608,-0.00000
 814,-0.00000883,-0.00000649,0.00000686,0.00000117,-0.00000070,-0.00000
 063,0.00000157,0.00000259,0.00000125,-0.00000123,0.00000181,0.00000476
 ,0.00001330,0.00001887,0.00001701,-0.00000761,-0.00000308,-0.00000481,
 -0.00000633,-0.00000545,0.00000509,0.00000050,0.00000373,-0.00000341,0
 .00000318,0.00000370,0.00000359,0.00000137,0.00000071,-0.00000222,0.00
 000198,-0.00000209,-0.00000105,-0.00000224,-0.00000052,-0.00000155,-0.
 00000045,0.00000232,-0.00000138,-0.00000327,-0.00000251,0.00000143,0.0
 0071675,0.00069497,0.00159093,0.01453937,-0.00974598,0.01069272,-0.000
 51785,-0.00023617,-0.00074360,0.00001187,-0.00006375,0.00000459,0.0862
 0903,-0.10264214,0.06233969,-0.00072005,0.00079380,-0.00015204,0.00209
 018,-0.00167915,-0.00302822,-0.01735269,0.01250998,-0.01263491,0.01296
 725,-0.00770317,0.00819115,-0.09762583,0.10781993,-0.00012517,0.000100
 00,-0.00001566,0.00002996,0.00002121,0.00001116,-0.00001016,-0.0000014
 1,0.00000507,-0.00000208,-0.00000023,-0.00000018,0.00034637,0.00001012
 ,0.00013751,-0.00011070,0.00003346,-0.00011162,0.00003174,0.00000034,0
 .00000429,-0.00001922,-0.00002741,-0.00000059,-0.00001392,-0.00000011,
 0.00000495,0.00000785,-0.00000214,-0.00001145,0.00000404,0.00000486,0.
 00000695,-0.00001364,-0.00000429,-0.00000359,-0.00000138,-0.00000334,-
 0.00000217,0.00000623,0.00000938,0.00000836,-0.00000248,-0.00000500,-0
 .00000094,0.00000314,-0.00000186,-0.00000356,0.00000125,0.00000190,0.0
 0000130,0.00000991,0.00000463,-0.00000317,-0.00000702,-0.00000548,-0.0
 0000436,-0.00000121,0.00000232,0.00000297,-0.00000875,-0.00000172,-0.0
 0000117,0.00000089,0.00000033,-0.00000062,0.00000719,0.00000067,0.0000
 0322,0.00000032,0.00000263,0.00000240,-0.00000844,0.00000902,-0.000008
 89,-0.00000891,-0.00000080,0.00000467,0.00000228,0.00000013,0.00000142
 ,0.00000097,0.00000188,0.00000326,0.00000196,0.00000026,-0.00000188,-0
 .00000099,-0.00000002,-0.00000052,0.00000234,0.00000180,-0.00000326,0.
 00000240,0.00000001,0.00000254,-0.00000101,0.00000027,0.00000036,0.000
 00020,-0.00000028,-0.00000140,0.00000719,0.00000345,0.00000067,-0.0000
 0359,-0.00000125,-0.00000160,-0.00000234,-0.00000247,0.00000413,0.0000
 0095,0.00000252,-0.00000126,0.00000025,0.00000083,-0.00000042,0.000000
 55,-0.00000074,-0.00000023,0.00000060,-0.00000091,-0.00000119,-0.00000
 078,0.00000030,0.00000030,-0.00000006,-0.00000024,0.00000026,-0.000000
 33,-0.00000008,0.00000010,0.00066401,0.00057596,0.00121903,0.01639904,
 -0.01040298,0.01184630,-0.00034924,0.00026246,-0.00002037,-0.00015192,
 -0.00002686,-0.00009269,-0.10296974,0.06297915,-0.12335755,-0.00045579
 ,0.00066650,0.00111414,0.00258323,-0.00335193,-0.00191188,-0.00767105,
 0.00613116,-0.00693836,-0.01856506,0.00909566,-0.01215461,0.11039010,-
 0.06608164,0.13026978\\-0.00000008,-0.00000001,-0.00000015,0.00000011,
 0.00000019,0.,0.00000042,0.00000001,0.00000011,0.00000007,0.00000009,0
 .00000009,-0.00000041,0.00000021,-0.00000007,-0.00000027,0.00000036,0.
 00000006,-0.00000050,0.00000023,-0.00000004,-0.00000018,-0.00000035,-0
 .00000016,-0.00000026,-0.00000053,-0.00000018,-0.00000036,-0.00000032,
 -0.00000012,0.00000009,-0.00000008,-0.00000005,-0.00000009,-0.00000031
 ,-0.00000007,0.00000033,-0.00000036,-0.00000002,0.00000092,-0.00000024
 ,0.00000015,0.00000021,0.00000009,0.00000017,0.00000036,-0.00000008,0.
 00000012,0.00000048,0.00000020,0.00000011,0.00000006,0.00000033,0.0000
 0009,0.00000049,0.00000022,0.00000015,0.00000058,-0.00000023,0.0000000
 6,0.00000019,-0.00000020,-0.00000002,0.00000062,0.00000008,0.00000015,
 0.00000032,0.00000039,0.00000017,0.00000073,0.00000033,0.00000023,0.00
 000019,-0.00000056,-0.00000008,0.00000007,-0.00000090,-0.00000018,0.00
 000018,-0.00000044,-0.00000004,0.00000037,-0.00000055,-0.00000006,0.00
 000032,-0.00000113,-0.00000022,-0.00000020,-0.00000093,-0.00000026,0.,
 -0.00000105,-0.00000025,0.00000026,-0.00000138,-0.00000027,0.00000057,
 -0.00000113,-0.00000014,0.00000037,-0.00000101,-0.00000016,0.00000018,
 0.00000060,0.00000012,0.00000052,0.00000065,0.00000019,-0.00000003,0.0
 0000068,0.00000016,0.00000023,0.00000055,0.00000028,0.00000055,0.00000
 104,0.00000034,0.00000045,0.00000060,0.00000027,0.00000070,0.00000049,
 0.00000029,0.00000074,0.00000112,0.00000043,0.00000057,0.00000108,0.00
 000042,0.00000031,0.00000119,0.00000035,-0.00000067,0.00000006,-0.0000
 0015,-0.00000096,0.00000024,-0.00000020,-0.00000073,-0.00000024,-0.000
 00022,-0.00000058,-0.00000009,-0.00000012,-0.00000126,0.00000010,-0.00
 000027,-0.00000108,0.00000031,-0.00000015,-0.00000089,0.00000048,-0.00
 000007,-0.00000147,0.00000028,-0.00000025,-0.00000118,0.00000002,-0.00
 000024,-0.00000135,-0.00000013,-0.00000033\\\@


 IN THE LONG RUN, DIGGING FOR TRUTH HAS ALWAYS PROVED NOT ONLY 
 MORE INTERESTING BUT MORE PROFITABLE THAN DIGGING FOR GOLD.

                             -- GEORGE R. HARRISON
 Job cpu time:       0 days 16 hours 50 minutes 51.8 seconds.
 Elapsed time:       0 days  0 hours 15 minutes 49.9 seconds.
 File lengths (MBytes):  RWF=   1183 Int=      0 D2E=      0 Chk=     19 Scr=      1
 Normal termination of Gaussian 16 at Thu Sep 26 10:59:05 2019.
