 Entering Gaussian System, Link 0=g16
 Input=2_test_opt_freq_from_IRC.com
 Output=2_test_opt_freq_from_IRC.log
 Initial command:
 /opt/ohpc/pub/apps/gaussian/avx2/g16/l1.exe "/scratch/g16-tmp/Gau-1844585.inp" -scrdir="/scratch/g16-tmp/"
 Entering Link 1 = /opt/ohpc/pub/apps/gaussian/avx2/g16/l1.exe PID=   1844586.
  
 Copyright (c) 1988-2017, Gaussian, Inc.  All Rights Reserved.
  
 This is part of the Gaussian(R) 16 program.  It is based on
 the Gaussian(R) 09 system (copyright 2009, Gaussian, Inc.),
 the Gaussian(R) 03 system (copyright 2003, Gaussian, Inc.),
 the Gaussian(R) 98 system (copyright 1998, Gaussian, Inc.),
 the Gaussian(R) 94 system (copyright 1995, Gaussian, Inc.),
 the Gaussian 92(TM) system (copyright 1992, Gaussian, Inc.),
 the Gaussian 90(TM) system (copyright 1990, Gaussian, Inc.),
 the Gaussian 88(TM) system (copyright 1988, Gaussian, Inc.),
 the Gaussian 86(TM) system (copyright 1986, Carnegie Mellon
 University), and the Gaussian 82(TM) system (copyright 1983,
 Carnegie Mellon University). Gaussian is a federally registered
 trademark of Gaussian, Inc.
  
 This software contains proprietary and confidential information,
 including trade secrets, belonging to Gaussian, Inc.
  
 This software is provided under written license and may be
 used, copied, transmitted, or stored only in accord with that
 written license.
  
 The following legend is applicable only to US Government
 contracts under FAR:
  
                    RESTRICTED RIGHTS LEGEND
  
 Use, reproduction and disclosure by the US Government is
 subject to restrictions as set forth in subparagraphs (a)
 and (c) of the Commercial Computer Software - Restricted
 Rights clause in FAR 52.227-19.
  
 Gaussian, Inc.
 340 Quinnipiac St., Bldg. 40, Wallingford CT 06492
  
  
 ---------------------------------------------------------------
 Warning -- This program may not be used in any manner that
 competes with the business of Gaussian, Inc. or will provide
 assistance to any competitor of Gaussian, Inc.  The licensee
 of this program is prohibited from giving any competitor of
 Gaussian, Inc. access to this program.  By using this program,
 the user acknowledges that Gaussian, Inc. is engaged in the
 business of creating and licensing software in the field of
 computational chemistry and represents and warrants to the
 licensee that it is not a competitor of Gaussian, Inc. and that
 it will not use this program in any manner prohibited above.
 ---------------------------------------------------------------
  

 Cite this work as:
 Gaussian 16, Revision B.01,
 M. J. Frisch, G. W. Trucks, H. B. Schlegel, G. E. Scuseria, 
 M. A. Robb, J. R. Cheeseman, G. Scalmani, V. Barone, 
 G. A. Petersson, H. Nakatsuji, X. Li, M. Caricato, A. V. Marenich, 
 J. Bloino, B. G. Janesko, R. Gomperts, B. Mennucci, H. P. Hratchian, 
 J. V. Ortiz, A. F. Izmaylov, J. L. Sonnenberg, D. Williams-Young, 
 F. Ding, F. Lipparini, F. Egidi, J. Goings, B. Peng, A. Petrone, 
 T. Henderson, D. Ranasinghe, V. G. Zakrzewski, J. Gao, N. Rega, 
 G. Zheng, W. Liang, M. Hada, M. Ehara, K. Toyota, R. Fukuda, 
 J. Hasegawa, M. Ishida, T. Nakajima, Y. Honda, O. Kitao, H. Nakai, 
 T. Vreven, K. Throssell, J. A. Montgomery, Jr., J. E. Peralta, 
 F. Ogliaro, M. J. Bearpark, J. J. Heyd, E. N. Brothers, K. N. Kudin, 
 V. N. Staroverov, T. A. Keith, R. Kobayashi, J. Normand, 
 K. Raghavachari, A. P. Rendell, J. C. Burant, S. S. Iyengar, 
 J. Tomasi, M. Cossi, J. M. Millam, M. Klene, C. Adamo, R. Cammi, 
 J. W. Ochterski, R. L. Martin, K. Morokuma, O. Farkas, 
 J. B. Foresman, and D. J. Fox, Gaussian, Inc., Wallingford CT, 2016.
 
 ******************************************
 Gaussian 16:  ES64L-G16RevB.01 20-Dec-2017
                 8-Mar-2023 
 ******************************************
 %nprocshared=64
 Will use up to   64 processors via shared memory.
 %mem=64GB
 %chk=2_test_opt_freq_from_IRC.chk
 ----------------------------------------------------------------------
 # opt=(calcall,tight,cartesian) freq ucam-b3lyp/gen nosymm scf=(qc,max
 cycle=1024,vshift=100) pseudo=read
 ----------------------------------------------------------------------
 1/7=10,10=4,18=10,26=3,38=1/1,3;
 2/12=2,15=1,17=6,18=5,29=2,40=1/2;
 3/5=7,11=2,16=1,17=8,25=1,30=1,71=2,74=-40,116=2,140=1/1,2,3;
 4//1;
 5/5=2,7=1024,8=3,10=100,38=5/8;
 8/6=4,10=90,11=11/1;
 11/6=1,8=1,9=11,15=111,16=1,31=1/1,2,10;
 10/6=1,31=1/2;
 6/7=2,8=2,9=2,10=2,18=1,28=1/1;
 7/7=1,10=1,25=1,30=1/1,2,3,16;
 1/7=10,10=4,18=10,26=3/3(3);
 2/15=1,29=1/2;
 7/7=1,8=1,9=1,25=1,30=1,44=-1/16;
 99/12=1/99;
 2/15=1,29=1/2;
 3/5=7,6=1,11=2,16=1,17=8,25=1,30=1,71=2,74=-40,82=7,116=2,140=1/1,2,3;
 4/5=5,16=3,69=1/1;
 5/5=2,7=1024,8=3,10=100,38=5/8;
 8/6=4,10=90,11=11/1;
 11/6=1,8=1,9=11,15=111,16=1,31=1/1,2,10;
 10/6=1,31=1/2;
 7/7=1,10=1,25=1,30=1/1,2,3,16;
 1/7=10,10=4,18=10,26=3/3(-8);
 2/15=1,29=1/2;
 6/7=2,8=2,9=2,10=2,18=1,19=2,28=1/1;
 7/7=1,8=1,9=1,25=1,30=1,44=-1/16;
 99/12=1/99;
 ------------------------
 2_test_opt_freq_from_IRC
 ------------------------
 Symbolic Z-matrix:
 Charge =  0 Multiplicity = 4
 Li                   -1   -1.57353  -6.19113  -3.27725 
 N                    -1   -1.24314  -4.75916  -2.09463 
 C                    0    -1.9042   -5.13571  -0.96055 
 Cl                   0    -2.63355  -6.7114   -0.92193 
 N                    -1    1.34374   1.46761  -2.29587 
 C                    0     2.24592   0.45789  -2.22635 
 Cl                   0     3.82064   0.56928  -2.93285 
 N                    -1   -4.29384   0.88349   1.25132 
 C                    0    -4.52286   0.80531  -0.08189 
 Cl                   0    -5.94286   1.45063  -0.82225 
 N                    0    -1.17358  -3.09416  -0.60778 
 C                    0    -1.87078  -4.12701  -0.04405 
 Cl                   0    -2.53993  -4.05847   1.52587 
 N                    0    -2.56988  -0.18084   0.25669 
 C                    0    -3.4853    0.15873  -0.70002 
 Cl                   0    -3.25289  -0.23586  -2.36454 
 N                    0     0.45021  -0.26215  -1.14916 
 C                    0     1.71924  -0.5983   -1.52882 
 Cl                   0     2.43548  -2.11745  -1.13529 
 C                    0    -0.82603  -3.51838  -1.82619 
 H                    0    -0.26125  -2.90929  -2.51642 
 C                    0    -3.12807   0.28415   1.40737 
 H                    0    -2.64788   0.15705   2.36772 
 C                    0     0.28999   0.98877  -1.64421 
 H                    0    -0.63577   1.53281  -1.51376 
 Co                   0    -0.88776  -1.1871    0.04099 
 C                    0     1.23455  -0.69732   2.24747 
 C                    0     0.08853   0.11788   2.58286 
 O                    0    -0.11947  -1.18526   1.92129 
 C                    0     1.97654  -1.4778    3.28296 
 H                    0    -0.15781   0.97845   1.97406 
 H                    0    -0.26944   0.13954   3.60608 
 H                    0     2.46947  -2.35106   2.84839 
 H                    0     1.30093  -1.80561   4.07599 
 H                    0     2.72999  -0.81467   3.71655 
 H                    0     1.79255  -0.41179   1.36043 
 N                    0     2.84046   4.49294  -0.04228 
 C                    0     2.84712   5.29394   1.25614 
 C                    0     4.16455   5.92522   1.67939 
 H                    0     2.48885   4.60699   2.03193 
 H                    0     2.10806   6.08474   1.11161 
 H                    0     3.99002   6.37172   2.66138 
 H                    0     4.97089   5.20368   1.79765 
 H                    0     4.49601   6.72408   1.01242 
 C                    0     3.69025   5.18426  -1.07863 
 C                    0     3.69618   4.55271  -2.4616 
 H                    0     4.70354   5.21784  -0.68327 
 H                    0     3.32205   6.21257  -1.12597 
 H                    0     4.3276    5.17311  -3.10283 
 H                    0     4.11483   3.54568  -2.46194 
 H                    0     2.70641   4.505    -2.9162 
 C                    0     1.4055    4.43932  -0.56101 
 C                    0     0.34078   4.14888   0.48733 
 H                    0     1.39574   3.66995  -1.33384 
 H                    0     1.22354   5.40989  -1.03061 
 H                    0    -0.57006   3.85456  -0.03998 
 H                    0     0.61937   3.3493    1.17852 
 H                    0     0.10067   5.02467   1.09215 
 C                    0     3.28609   3.0521    0.17286 
 C                    0     4.68307   2.84187   0.72338 
 H                    0     3.15611   2.5641   -0.7899 
 H                    0     2.58631   2.62791   0.89633 
 H                    0     4.89649   1.77431   0.62857 
 H                    0     5.46814   3.37569   0.18129 
 H                    0     4.72077   3.07429   1.78829 
 Br                   0     2.09268   2.46379   3.409 
 

 GradGradGradGradGradGradGradGradGradGradGradGradGradGradGradGradGradGrad
 Berny optimization.
 Initialization pass.
 No Z-matrix variables, so optimization will use Cartesian coordinates.
 Trust Radius=3.00D-01 FncErr=1.00D-07 GrdErr=1.00D-06 EigMax=2.50D+02 EigMin=1.00D-04
 Number of steps in this run=    208 maximum allowed number of steps=    396.
 GradGradGradGradGradGradGradGradGradGradGradGradGradGradGradGradGradGrad

 Symmetry turned off by external request.
 Stoichiometry    C20H29BrCl6CoLiN7O(4)
 Framework group  C1[X(C20H29BrCl6CoLiN7O)]
 Deg. of freedom   192
 Full point group                 C1      NOp   1
                          Input orientation:                          
 ---------------------------------------------------------------------
 Center     Atomic      Atomic             Coordinates (Angstroms)
 Number     Number       Type             X           Y           Z
 ---------------------------------------------------------------------
      1          3           0       -1.573534   -6.191132   -3.277248
      2          7           0       -1.243135   -4.759164   -2.094630
      3          6           0       -1.904199   -5.135709   -0.960553
      4         17           0       -2.633546   -6.711395   -0.921928
      5          7           0        1.343736    1.467609   -2.295869
      6          6           0        2.245916    0.457890   -2.226353
      7         17           0        3.820643    0.569280   -2.932847
      8          7           0       -4.293838    0.883493    1.251322
      9          6           0       -4.522857    0.805308   -0.081890
     10         17           0       -5.942856    1.450634   -0.822245
     11          7           0       -1.173583   -3.094160   -0.607775
     12          6           0       -1.870776   -4.127005   -0.044051
     13         17           0       -2.539927   -4.058470    1.525873
     14          7           0       -2.569881   -0.180836    0.256688
     15          6           0       -3.485304    0.158726   -0.700024
     16         17           0       -3.252890   -0.235855   -2.364538
     17          7           0        0.450211   -0.262146   -1.149157
     18          6           0        1.719242   -0.598303   -1.528817
     19         17           0        2.435483   -2.117453   -1.135288
     20          6           0       -0.826025   -3.518378   -1.826185
     21          1           0       -0.261248   -2.909290   -2.516423
     22          6           0       -3.128068    0.284146    1.407369
     23          1           0       -2.647881    0.157048    2.367722
     24          6           0        0.289988    0.988773   -1.644208
     25          1           0       -0.635768    1.532809   -1.513756
     26         27           0       -0.887757   -1.187099    0.040986
     27          6           0        1.234554   -0.697318    2.247474
     28          6           0        0.088528    0.117877    2.582859
     29          8           0       -0.119465   -1.185259    1.921285
     30          6           0        1.976539   -1.477799    3.282964
     31          1           0       -0.157811    0.978445    1.974061
     32          1           0       -0.269444    0.139543    3.606082
     33          1           0        2.469471   -2.351058    2.848385
     34          1           0        1.300932   -1.805610    4.075988
     35          1           0        2.729988   -0.814667    3.716552
     36          1           0        1.792552   -0.411786    1.360425
     37          7           0        2.840457    4.492937   -0.042278
     38          6           0        2.847119    5.293938    1.256144
     39          6           0        4.164550    5.925216    1.679392
     40          1           0        2.488852    4.606987    2.031934
     41          1           0        2.108059    6.084744    1.111607
     42          1           0        3.990019    6.371720    2.661384
     43          1           0        4.970885    5.203678    1.797647
     44          1           0        4.496012    6.724081    1.012419
     45          6           0        3.690250    5.184261   -1.078630
     46          6           0        3.696179    4.552705   -2.461600
     47          1           0        4.703543    5.217843   -0.683269
     48          1           0        3.322053    6.212568   -1.125965
     49          1           0        4.327596    5.173107   -3.102831
     50          1           0        4.114830    3.545684   -2.461941
     51          1           0        2.706413    4.505003   -2.916200
     52          6           0        1.405499    4.439322   -0.561013
     53          6           0        0.340784    4.148883    0.487334
     54          1           0        1.395741    3.669951   -1.333843
     55          1           0        1.223535    5.409889   -1.030607
     56          1           0       -0.570056    3.854560   -0.039976
     57          1           0        0.619371    3.349302    1.178523
     58          1           0        0.100673    5.024669    1.092149
     59          6           0        3.286087    3.052103    0.172862
     60          6           0        4.683065    2.841866    0.723377
     61          1           0        3.156107    2.564097   -0.789901
     62          1           0        2.586307    2.627911    0.896329
     63          1           0        4.896491    1.774307    0.628565
     64          1           0        5.468136    3.375690    0.181285
     65          1           0        4.720768    3.074292    1.788287
     66         35           0        2.092685    2.463789    3.409004
 ---------------------------------------------------------------------
 Rotational constants (GHZ):           0.0868084           0.0411353           0.0382077
 General basis read from cards:  (5D, 7F)
 ======================================================================================================
                                       Pseudopotential Parameters
 ======================================================================================================
  Center     Atomic      Valence      Angular      Power
  Number     Number     Electrons     Momentum     of R      Exponent        Coefficient   SO-Coeffient
 ======================================================================================================
    1          3
                                   No pseudopotential on this center.
    2          7
                                   No pseudopotential on this center.
    3          6
                                   No pseudopotential on this center.
    4         17
                                   No pseudopotential on this center.
    5          7
                                   No pseudopotential on this center.
    6          6
                                   No pseudopotential on this center.
    7         17
                                   No pseudopotential on this center.
    8          7
                                   No pseudopotential on this center.
    9          6
                                   No pseudopotential on this center.
   10         17
                                   No pseudopotential on this center.
   11          7
                                   No pseudopotential on this center.
   12          6
                                   No pseudopotential on this center.
   13         17
                                   No pseudopotential on this center.
   14          7
                                   No pseudopotential on this center.
   15          6
                                   No pseudopotential on this center.
   16         17
                                   No pseudopotential on this center.
   17          7
                                   No pseudopotential on this center.
   18          6
                                   No pseudopotential on this center.
   19         17
                                   No pseudopotential on this center.
   20          6
                                   No pseudopotential on this center.
   21          1
                                   No pseudopotential on this center.
   22          6
                                   No pseudopotential on this center.
   23          1
                                   No pseudopotential on this center.
   24          6
                                   No pseudopotential on this center.
   25          1
                                   No pseudopotential on this center.
   26         27           17
                                      D and up 
                                                     1      434.1076104      -10.00000000    0.00000000
                                                     2       78.8402758      -66.72402760    0.00000000
                                                     2       19.6037749      -11.71922430    0.00000000
                                      S - D
                                                     0      151.2307582        3.00000000    0.00000000
                                                     1      169.6790026       20.15531100    0.00000000
                                                     2       64.9909423      413.37622440    0.00000000
                                                     2       12.5076287      133.87277050    0.00000000
                                      P - D
                                                     0       92.7319924        5.00000000    0.00000000
                                                     1      121.1910183        6.18923530    0.00000000
                                                     2       48.6265909      326.32159190    0.00000000
                                                     2       11.9966971       73.87889700    0.00000000
   27          6
                                   No pseudopotential on this center.
   28          6
                                   No pseudopotential on this center.
   29          8
                                   No pseudopotential on this center.
   30          6
                                   No pseudopotential on this center.
   31          1
                                   No pseudopotential on this center.
   32          1
                                   No pseudopotential on this center.
   33          1
                                   No pseudopotential on this center.
   34          1
                                   No pseudopotential on this center.
   35          1
                                   No pseudopotential on this center.
   36          1
                                   No pseudopotential on this center.
   37          7
                                   No pseudopotential on this center.
   38          6
                                   No pseudopotential on this center.
   39          6
                                   No pseudopotential on this center.
   40          1
                                   No pseudopotential on this center.
   41          1
                                   No pseudopotential on this center.
   42          1
                                   No pseudopotential on this center.
   43          1
                                   No pseudopotential on this center.
   44          1
                                   No pseudopotential on this center.
   45          6
                                   No pseudopotential on this center.
   46          6
                                   No pseudopotential on this center.
   47          1
                                   No pseudopotential on this center.
   48          1
                                   No pseudopotential on this center.
   49          1
                                   No pseudopotential on this center.
   50          1
                                   No pseudopotential on this center.
   51          1
                                   No pseudopotential on this center.
   52          6
                                   No pseudopotential on this center.
   53          6
                                   No pseudopotential on this center.
   54          1
                                   No pseudopotential on this center.
   55          1
                                   No pseudopotential on this center.
   56          1
                                   No pseudopotential on this center.
   57          1
                                   No pseudopotential on this center.
   58          1
                                   No pseudopotential on this center.
   59          6
                                   No pseudopotential on this center.
   60          6
                                   No pseudopotential on this center.
   61          1
                                   No pseudopotential on this center.
   62          1
                                   No pseudopotential on this center.
   63          1
                                   No pseudopotential on this center.
   64          1
                                   No pseudopotential on this center.
   65          1
                                   No pseudopotential on this center.
   66         35
                                   No pseudopotential on this center.
 ======================================================================================================
   709 basis functions,  1462 primitive gaussians,   748 cartesian basis functions
   183 alpha electrons      180 beta electrons
       nuclear repulsion energy      6747.4905845020 Hartrees.
 NAtoms=   66 NActive=   66 NUniq=   66 SFac= 1.00D+00 NAtFMM=   60 NAOKFM=T Big=T
 Integral buffers will be    131072 words long.
 Raffenetti 2 integral format.
 Two-electron integral symmetry is turned off.
 One-electron integrals computed using PRISM.
   1 Symmetry operations used in ECPInt.
 ECPInt:  NShTT=   32131 NPrTT=  189684 LenC2=   23860 LenP2D=   73129.
 LDataN:  DoStor=T MaxTD1= 4 Len=   56
 NBasis=   709 RedAO= T EigKep=  1.34D-03  NBF=   709
 NBsUse=   709 1.00D-06 EigRej= -1.00D+00 NBFU=   709
 ExpMin= 2.30D-02 ExpMax= 5.74D+05 ExpMxC= 5.74D+03 IAcc=3 IRadAn=         5 AccDes= 0.00D+00
 Harris functional with IExCor=20419 and IRadAn=       5 diagonalized for initial guess.
 HarFok:  IExCor=20419 AccDes= 0.00D+00 IRadAn=         5 IDoV= 1 UseB2=F ITyADJ=14
 ICtDFT=  3500011 ScaDFX=  1.000000  1.000000  1.000000  1.000000
 FoFCou: FMM=F IPFlag=           0 FMFlag=      100000 FMFlg1=        2001
         NFxFlg=           0 DoJE=T BraDBF=F KetDBF=T FulRan=T
         wScrn=  0.000000 ICntrl=       500 IOpCl=  0 I1Cent=   200000004 NGrid=           0
         NMat0=    1 NMatS0=      1 NMatT0=    0 NMatD0=    1 NMtDS0=    0 NMtDT0=    0
 Symmetry not used in FoFCou.
 Initial guess <Sx>= 0.0000 <Sy>= 0.0000 <Sz>= 1.5000 <S**2>= 3.7500 S= 1.5000
 Gradient too large for Newton-Raphson -- use scaled steepest descent instead.
     Accept linear search using points  3 and  4.
 Gradient too large for Newton-Raphson -- use scaled steepest descent instead.
     Accept linear search using points  1 and  2.
 Gradient too large for Newton-Raphson -- use scaled steepest descent instead.
     Accept linear search using points  3 and  4.
 Gradient too large for Newton-Raphson -- use scaled steepest descent instead.
 Gradient too large for Newton-Raphson -- use scaled steepest descent instead.
     Accept linear search using points  1 and  2.
 Gradient too large for Newton-Raphson -- use scaled steepest descent instead.
     Accept linear search using points  3 and  4.
 Gradient too large for Newton-Raphson -- use scaled steepest descent instead.
 Restarting incremental Fock formation.
     Accept linear search using points  1 and  2.
 Gradient too large for Newton-Raphson -- use scaled steepest descent instead.
     Accept linear search using points  6 and  7.
     Minimum is close to point  7 DX= -2.55D-01 DF= -4.17D-04 DXR=  5.49D-02 DFR=  4.76D-03 which will be used.
 Gradient too large for Newton-Raphson -- use scaled steepest descent instead.
 Gradient too large for Newton-Raphson -- use scaled steepest descent instead.
     Minimum is close to point  3 DX=  1.92D-02 DF= -7.82D-05 DXR=  3.10D-02 DFR=  9.62D-04 which will be used.
 Gradient too large for Newton-Raphson -- use scaled steepest descent instead.
     Accept linear search using points  1 and  2.
 Gradient too large for Newton-Raphson -- use scaled steepest descent instead.
 Restarting incremental Fock formation.
     Minimum is close to point  6 DX=  1.01D-02 DF= -3.95D-06 DXR=  5.30D-03 DFR=  3.48D-05 which will be used.
 Gradient too large for Newton-Raphson -- use scaled steepest descent instead.
     Accept linear search using points  1 and  2.
 Gradient too large for Newton-Raphson -- use scaled steepest descent instead.
     Minimum is close to point  3 DX=  1.68D-01 DF= -2.33D-04 DXR=  9.49D-02 DFR=  9.47D-03 which will be used.
 Gradient too large for Newton-Raphson -- use scaled steepest descent instead.
     Accept linear search using points  1 and  2.
 Gradient too large for Newton-Raphson -- use scaled steepest descent instead.
     Accept linear search using points  2 and  3.
 Gradient too large for Newton-Raphson -- use scaled steepest descent instead.
     Accept linear search using points  1 and  2.
 Gradient too large for Newton-Raphson -- use scaled steepest descent instead.
     Minimum is close to point  3 DX=  5.35D-02 DF= -8.19D-07 DXR=  2.74D-02 DFR=  7.51D-04 which will be used.
 Gradient too large for Newton-Raphson -- use scaled steepest descent instead.
     Accept linear search using points  1 and  2.
 Gradient too large for Newton-Raphson -- use scaled steepest descent instead.
     Accept linear search using points  2 and  3.
     Minimum is close to point  3 DX= -1.41D-01 DF= -3.29D-06 DXR=  7.21D-02 DFR=  5.76D-03 which will be used.
 Gradient too large for Newton-Raphson -- use scaled steepest descent instead.
 Restarting incremental Fock formation.
     Accept linear search using points  1 and  2.
 Gradient too large for Newton-Raphson -- use scaled steepest descent instead.
 Gradient too large for Newton-Raphson -- use scaled steepest descent instead.
     Minimum is close to point  3 DX=  3.19D-02 DF= -1.90D-06 DXR=  5.99D-02 DFR=  3.61D-03 which will be used.
 Gradient too large for Newton-Raphson -- use scaled steepest descent instead.
     Minimum is close to point  4 DX=  4.84D-03 DF= -1.07D-09 DXR=  1.07D-03 DFR=  1.17D-06 which will be used.
 Gradient too large for Newton-Raphson -- use scaled steepest descent instead.
 Gradient too large for Newton-Raphson -- use scaled steepest descent instead.
 Gradient too large for Newton-Raphson -- use scaled steepest descent instead.
 Restarting incremental Fock formation.
 Gradient too large for Newton-Raphson -- use scaled steepest descent instead.
 Gradient too large for Newton-Raphson -- use scaled steepest descent instead.
 Gradient too large for Newton-Raphson -- use scaled steepest descent instead.
 Gradient too large for Newton-Raphson -- use scaled steepest descent instead.
 Gradient too large for Newton-Raphson -- use scaled steepest descent instead.
 Gradient too large for Newton-Raphson -- use scaled steepest descent instead.
 Restarting incremental Fock formation.
 LinEq1:  Iter=  0 NonCon=     1 RMS=5.52D-05 Max=1.05D-02 NDo=     1
 AX will form     1 AO Fock derivatives at one time.
 LinEq1:  Iter=  1 NonCon=     1 RMS=2.87D-05 Max=1.52D-03 NDo=     1
 LinEq1:  Iter=  2 NonCon=     1 RMS=9.14D-06 Max=9.57D-04 NDo=     1
 LinEq1:  Iter=  3 NonCon=     1 RMS=4.71D-06 Max=3.83D-04 NDo=     1
 LinEq1:  Iter=  4 NonCon=     1 RMS=2.72D-06 Max=2.44D-04 NDo=     1
 LinEq1:  Iter=  5 NonCon=     1 RMS=1.56D-06 Max=2.31D-04 NDo=     1
 LinEq1:  Iter=  6 NonCon=     1 RMS=9.99D-07 Max=9.29D-05 NDo=     1
 LinEq1:  Iter=  7 NonCon=     1 RMS=7.01D-07 Max=6.90D-05 NDo=     1
 LinEq1:  Iter=  8 NonCon=     1 RMS=3.68D-07 Max=3.16D-05 NDo=     1
 LinEq1:  Iter=  9 NonCon=     1 RMS=2.38D-07 Max=1.83D-05 NDo=     1
 LinEq1:  Iter= 10 NonCon=     1 RMS=1.67D-07 Max=1.38D-05 NDo=     1
 LinEq1:  Iter= 11 NonCon=     1 RMS=1.06D-07 Max=7.91D-06 NDo=     1
 LinEq1:  Iter= 12 NonCon=     1 RMS=6.53D-08 Max=6.23D-06 NDo=     1
 LinEq1:  Iter= 13 NonCon=     1 RMS=3.07D-08 Max=2.67D-06 NDo=     1
 LinEq1:  Iter= 14 NonCon=     1 RMS=1.75D-08 Max=1.29D-06 NDo=     1
 LinEq1:  Iter= 15 NonCon=     1 RMS=9.23D-09 Max=7.16D-07 NDo=     1
 LinEq1:  Iter= 16 NonCon=     1 RMS=6.82D-09 Max=6.63D-07 NDo=     1
 LinEq1:  Iter= 17 NonCon=     1 RMS=4.94D-09 Max=5.80D-07 NDo=     1
 LinEq1:  Iter= 18 NonCon=     0 RMS=3.03D-09 Max=3.37D-07 NDo=     1
 Linear equations converged to 4.376D-08 4.376D-07 after    18 iterations.
     Minimum is close to point  3 DX= -9.78D-03 DF= -2.04D-06 DXR=  1.99D-02 DFR=  3.98D-04 which will be used.
 Gradient too large for Newton-Raphson -- use scaled steepest descent instead.
     Accept linear search using points  1 and  2.
 LinEq1:  Iter=  0 NonCon=     1 RMS=1.64D-05 Max=9.59D-04 NDo=     1
 LinEq1:  Iter=  1 NonCon=     1 RMS=1.46D-05 Max=1.13D-03 NDo=     1
 LinEq1:  Iter=  2 NonCon=     1 RMS=6.07D-06 Max=7.12D-04 NDo=     1
 LinEq1:  Iter=  3 NonCon=     1 RMS=5.97D-06 Max=7.12D-04 NDo=     1
 LinEq1:  Iter=  4 NonCon=     1 RMS=2.04D-06 Max=1.48D-04 NDo=     1
 LinEq1:  Iter=  5 NonCon=     1 RMS=1.65D-06 Max=1.20D-04 NDo=     1
 LinEq1:  Iter=  6 NonCon=     1 RMS=7.46D-07 Max=5.10D-05 NDo=     1
 LinEq1:  Iter=  7 NonCon=     1 RMS=5.99D-07 Max=3.18D-05 NDo=     1
 LinEq1:  Iter=  8 NonCon=     1 RMS=2.74D-07 Max=2.16D-05 NDo=     1
 LinEq1:  Iter=  9 NonCon=     1 RMS=1.94D-07 Max=1.41D-05 NDo=     1
 LinEq1:  Iter= 10 NonCon=     1 RMS=1.19D-07 Max=7.81D-06 NDo=     1
 LinEq1:  Iter= 11 NonCon=     1 RMS=8.76D-08 Max=8.70D-06 NDo=     1
 LinEq1:  Iter= 12 NonCon=     1 RMS=5.24D-08 Max=5.69D-06 NDo=     1
 LinEq1:  Iter= 13 NonCon=     1 RMS=3.48D-08 Max=3.31D-06 NDo=     1
 LinEq1:  Iter= 14 NonCon=     1 RMS=1.83D-08 Max=1.43D-06 NDo=     1
 LinEq1:  Iter= 15 NonCon=     1 RMS=1.10D-08 Max=7.83D-07 NDo=     1
 LinEq1:  Iter= 16 NonCon=     0 RMS=6.12D-09 Max=3.66D-07 NDo=     1
 Linear equations converged to 4.376D-08 4.376D-07 after    16 iterations.
     Minimum is close to point  2 DX=  9.21D-05 DF= -9.09D-13 DXR=  9.21D-05 DFR=  2.28D-08 which will be used.
 LinEq1:  Iter=  0 NonCon=     1 RMS=1.39D-07 Max=9.55D-06 NDo=     1
 LinEq1:  Iter=  1 NonCon=     1 RMS=1.09D-07 Max=7.58D-06 NDo=     1
 LinEq1:  Iter=  2 NonCon=     1 RMS=5.44D-08 Max=5.21D-06 NDo=     1
 LinEq1:  Iter=  3 NonCon=     1 RMS=4.01D-08 Max=3.46D-06 NDo=     1
 LinEq1:  Iter=  4 NonCon=     1 RMS=2.66D-08 Max=1.96D-06 NDo=     1
 LinEq1:  Iter=  5 NonCon=     1 RMS=1.78D-08 Max=1.36D-06 NDo=     1
 LinEq1:  Iter=  6 NonCon=     1 RMS=1.14D-08 Max=7.09D-07 NDo=     1
 LinEq1:  Iter=  7 NonCon=     1 RMS=7.73D-09 Max=6.08D-07 NDo=     1
 LinEq1:  Iter=  8 NonCon=     1 RMS=4.64D-09 Max=3.82D-07 NDo=     1
 LinEq1:  Iter=  9 NonCon=     1 RMS=2.48D-09 Max=1.56D-07 NDo=     1
 LinEq1:  Iter= 10 NonCon=     1 RMS=1.99D-09 Max=1.48D-07 NDo=     1
 LinEq1:  Iter= 11 NonCon=     1 RMS=1.35D-09 Max=9.51D-08 NDo=     1
 LinEq1:  Iter= 12 NonCon=     1 RMS=8.43D-10 Max=5.73D-08 NDo=     1
 LinEq1:  Iter= 13 NonCon=     1 RMS=5.72D-10 Max=5.62D-08 NDo=     1
 LinEq1:  Iter= 14 NonCon=     1 RMS=4.18D-10 Max=3.34D-08 NDo=     1
 LinEq1:  Iter= 15 NonCon=     1 RMS=2.89D-10 Max=2.78D-08 NDo=     1
 LinEq1:  Iter= 16 NonCon=     1 RMS=1.64D-10 Max=1.37D-08 NDo=     1
 LinEq1:  Iter= 17 NonCon=     1 RMS=1.04D-10 Max=6.05D-09 NDo=     1
 LinEq1:  Iter= 18 NonCon=     0 RMS=5.89D-11 Max=3.34D-09 NDo=     1
 Linear equations converged to 5.293D-10 5.293D-09 after    18 iterations.
 SCF Done:  E(UCAM-B3LYP) =  -6722.69804029     a.u. after   38 cycles
            Convg  =    0.4238D-06                   162 Fock formations.
              S**2 =  3.7547                  -V/T =  2.0107
 <Sx>= 0.0000 <Sy>= 0.0000 <Sz>= 1.5000 <S**2>= 3.7547 S= 1.5012
 <L.S>=  0.00000000000    
 Annihilation of the first spin contaminant:
 S**2 before annihilation     3.7547,   after     3.7500
 DoSCS=F DFT=T ScalE2(SS,OS)=  1.000000  1.000000
 Range of M.O.s used for correlation:     1   709
 NBasis=   709 NAE=   183 NBE=   180 NFC=     0 NFV=     0
 NROrb=    709 NOA=   183 NOB=   180 NVA=   526 NVB=   529
   1 Symmetry operations used in ECPInt.
 ECPInt:  NShTT=   32131 NPrTT=  189684 LenC2=   23860 LenP2D=   73129.
 LDataN:  DoStor=T MaxTD1= 5 Len=  102
 Number of processors reduced to  12 by ecpmxn.
 Symmetrizing basis deriv contribution to polar:
 IMax=3 JMax=2 DiffMx= 0.00D+00
 G2DrvN: will do    67 centers at a time, making    1 passes.
 Calling FoFCou, ICntrl=  3107 FMM=T I1Cent=   0 AccDes= 0.00D+00.
 End of G2Drv F.D. properties file   721 does not exist.
 End of G2Drv F.D. properties file   722 does not exist.
 End of G2Drv F.D. properties file   788 does not exist.
          IDoAtm=00110110111111111111111111111111111111111111111111
          IDoAtm=1111111111111111
          Differentiating once with respect to electric field.
                with respect to dipole field.
          Differentiating once with respect to nuclear coordinates.
 CalDSu exits because no D1Ps are significant.
          There are   189 degrees of freedom in the 1st order CPHF.  IDoFFX=6 NUNeed=     3.
    189 vectors produced by pass  0 Test12= 1.91D-13 1.00D-09 XBig12= 3.45D+02 2.71D+00.
 AX will form    96 AO Fock derivatives at one time.
    189 vectors produced by pass  1 Test12= 1.91D-13 1.00D-09 XBig12= 4.29D+01 7.72D-01.
    189 vectors produced by pass  2 Test12= 1.91D-13 1.00D-09 XBig12= 1.38D+00 1.66D-01.
    189 vectors produced by pass  3 Test12= 1.91D-13 1.00D-09 XBig12= 4.06D-02 2.45D-02.
    189 vectors produced by pass  4 Test12= 1.91D-13 1.00D-09 XBig12= 5.47D-04 2.61D-03.
    189 vectors produced by pass  5 Test12= 1.91D-13 1.00D-09 XBig12= 5.40D-06 2.78D-04.
    149 vectors produced by pass  6 Test12= 1.91D-13 1.00D-09 XBig12= 6.76D-08 2.24D-05.
     81 vectors produced by pass  7 Test12= 1.91D-13 1.00D-09 XBig12= 6.68D-10 1.61D-06.
     34 vectors produced by pass  8 Test12= 1.91D-13 1.00D-09 XBig12= 6.09D-12 1.49D-07.
      3 vectors produced by pass  9 Test12= 1.91D-13 1.00D-09 XBig12= 5.97D-14 1.64D-08.
      3 vectors produced by pass 10 Test12= 1.91D-13 1.00D-09 XBig12= 7.00D-16 2.04D-09.
 InvSVY:  IOpt=1 It=  1 EMax= 2.49D-14
 Solved reduced A of dimension  1404 with   189 vectors.
 Isotropic polarizability for W=    0.000000      352.62 Bohr**3.
 End of Minotr F.D. properties file   721 does not exist.
 End of Minotr F.D. properties file   722 does not exist.
 End of Minotr F.D. properties file   788 does not exist.

 **********************************************************************

            Population analysis using the SCF Density.

 **********************************************************************

 Alpha  occ. eigenvalues -- -482.57976-101.66350-101.62419-101.61064-101.59907
 Alpha  occ. eigenvalues -- -101.59175-101.56822 -61.66109 -56.22902 -56.22876
 Alpha  occ. eigenvalues --  -56.22855 -19.26059 -14.52972 -14.44910 -14.44511
 Alpha  occ. eigenvalues --  -14.41922 -14.40088 -14.38434 -14.35606 -10.36089
 Alpha  occ. eigenvalues --  -10.35836 -10.34042 -10.32753 -10.32256 -10.31665
 Alpha  occ. eigenvalues --  -10.31493 -10.31160 -10.30688 -10.30626 -10.29974
 Alpha  occ. eigenvalues --  -10.29504 -10.29362 -10.28975 -10.27379 -10.27158
 Alpha  occ. eigenvalues --  -10.26635 -10.25218 -10.24904 -10.24251  -9.59568
 Alpha  occ. eigenvalues --   -9.55593  -9.54224  -9.53114  -9.52339  -9.50083
 Alpha  occ. eigenvalues --   -8.44143  -7.35960  -7.35081  -7.34953  -7.32079
 Alpha  occ. eigenvalues --   -7.31000  -7.30995  -7.30665  -7.29661  -7.29657
 Alpha  occ. eigenvalues --   -7.29544  -7.28771  -7.28564  -7.28537  -7.27786
 Alpha  occ. eigenvalues --   -7.27769  -7.26518  -7.25520  -7.25501  -6.45112
 Alpha  occ. eigenvalues --   -6.45076  -6.45043  -3.95363  -2.65375  -2.65141
 Alpha  occ. eigenvalues --   -2.64563  -2.57407  -2.57403  -2.57376  -2.57347
 Alpha  occ. eigenvalues --   -2.57343  -2.16137  -1.16024  -1.13421  -1.09722
 Alpha  occ. eigenvalues --   -1.08901  -1.06669  -1.01073  -0.98432  -0.96074
 Alpha  occ. eigenvalues --   -0.94791  -0.93889  -0.93628  -0.92259  -0.89663
 Alpha  occ. eigenvalues --   -0.88328  -0.87271  -0.87256  -0.86597  -0.83198
 Alpha  occ. eigenvalues --   -0.82233  -0.82077  -0.77861  -0.75741  -0.75498
 Alpha  occ. eigenvalues --   -0.74931  -0.73905  -0.72282  -0.69844  -0.67440
 Alpha  occ. eigenvalues --   -0.67429  -0.67146  -0.65377  -0.65193  -0.63255
 Alpha  occ. eigenvalues --   -0.62782  -0.61787  -0.60605  -0.60048  -0.59865
 Alpha  occ. eigenvalues --   -0.59391  -0.57707  -0.57418  -0.55837  -0.55429
 Alpha  occ. eigenvalues --   -0.55360  -0.54272  -0.53651  -0.53492  -0.52066
 Alpha  occ. eigenvalues --   -0.51483  -0.51088  -0.50901  -0.50341  -0.50112
 Alpha  occ. eigenvalues --   -0.49524  -0.49421  -0.48877  -0.48659  -0.48591
 Alpha  occ. eigenvalues --   -0.47822  -0.47363  -0.47319  -0.47120  -0.46863
 Alpha  occ. eigenvalues --   -0.46259  -0.45929  -0.45753  -0.45697  -0.45213
 Alpha  occ. eigenvalues --   -0.44895  -0.44766  -0.44489  -0.44374  -0.43873
 Alpha  occ. eigenvalues --   -0.43650  -0.43483  -0.43141  -0.42853  -0.42661
 Alpha  occ. eigenvalues --   -0.42207  -0.42030  -0.41235  -0.40989  -0.40578
 Alpha  occ. eigenvalues --   -0.40270  -0.40018  -0.39473  -0.39066  -0.38756
 Alpha  occ. eigenvalues --   -0.38573  -0.37508  -0.37435  -0.36913  -0.36681
 Alpha  occ. eigenvalues --   -0.35688  -0.35150  -0.33699  -0.33140  -0.31576
 Alpha  occ. eigenvalues --   -0.30355  -0.29985  -0.29146  -0.26144  -0.23801
 Alpha  occ. eigenvalues --   -0.22895  -0.22693  -0.22674
 Alpha virt. eigenvalues --   -0.05911  -0.00160   0.00617   0.04537   0.04960
 Alpha virt. eigenvalues --    0.05199   0.06319   0.06649   0.07467   0.08303
 Alpha virt. eigenvalues --    0.08940   0.09683   0.09746   0.10360   0.10904
 Alpha virt. eigenvalues --    0.11413   0.11690   0.12220   0.12369   0.12612
 Alpha virt. eigenvalues --    0.13015   0.13367   0.13429   0.14313   0.14565
 Alpha virt. eigenvalues --    0.14600   0.14931   0.15616   0.15707   0.16193
 Alpha virt. eigenvalues --    0.16653   0.17179   0.17662   0.18495   0.18625
 Alpha virt. eigenvalues --    0.19110   0.19945   0.20215   0.20587   0.20827
 Alpha virt. eigenvalues --    0.21134   0.21265   0.21542   0.21921   0.22128
 Alpha virt. eigenvalues --    0.22482   0.22671   0.23046   0.23576   0.23757
 Alpha virt. eigenvalues --    0.24153   0.25007   0.25618   0.25834   0.26542
 Alpha virt. eigenvalues --    0.26767   0.26861   0.27368   0.27607   0.27926
 Alpha virt. eigenvalues --    0.28706   0.29464   0.29806   0.30326   0.30604
 Alpha virt. eigenvalues --    0.31668   0.32070   0.32191   0.32470   0.33030
 Alpha virt. eigenvalues --    0.33562   0.33793   0.35245   0.36878   0.37213
 Alpha virt. eigenvalues --    0.38065   0.38882   0.39326   0.39792   0.41142
 Alpha virt. eigenvalues --    0.41374   0.42227   0.42736   0.43145   0.43537
 Alpha virt. eigenvalues --    0.44327   0.45953   0.46580   0.46943   0.47164
 Alpha virt. eigenvalues --    0.47885   0.48704   0.49062   0.49390   0.49786
 Alpha virt. eigenvalues --    0.50419   0.50772   0.50945   0.51214   0.51523
 Alpha virt. eigenvalues --    0.51930   0.52645   0.52821   0.53220   0.53696
 Alpha virt. eigenvalues --    0.53963   0.54396   0.55205   0.55286   0.55914
 Alpha virt. eigenvalues --    0.56953   0.57281   0.57500   0.58047   0.58537
 Alpha virt. eigenvalues --    0.59149   0.59377   0.59941   0.60613   0.61004
 Alpha virt. eigenvalues --    0.61241   0.61493   0.62023   0.62755   0.63516
 Alpha virt. eigenvalues --    0.63922   0.64317   0.64607   0.64939   0.65213
 Alpha virt. eigenvalues --    0.65529   0.65889   0.66043   0.66666   0.66703
 Alpha virt. eigenvalues --    0.67307   0.67507   0.68029   0.68308   0.68601
 Alpha virt. eigenvalues --    0.68824   0.69343   0.69760   0.70182   0.70310
 Alpha virt. eigenvalues --    0.70806   0.71237   0.71287   0.72169   0.73003
 Alpha virt. eigenvalues --    0.73304   0.73438   0.73858   0.73962   0.74479
 Alpha virt. eigenvalues --    0.75184   0.75937   0.76021   0.76384   0.77109
 Alpha virt. eigenvalues --    0.78022   0.78600   0.79781   0.80317   0.80864
 Alpha virt. eigenvalues --    0.81245   0.81944   0.82252   0.82568   0.83147
 Alpha virt. eigenvalues --    0.83731   0.84424   0.84771   0.85711   0.86577
 Alpha virt. eigenvalues --    0.86652   0.86990   0.87502   0.87914   0.88933
 Alpha virt. eigenvalues --    0.89213   0.89639   0.90010   0.90093   0.90334
 Alpha virt. eigenvalues --    0.90706   0.90770   0.90982   0.91474   0.91667
 Alpha virt. eigenvalues --    0.91800   0.91993   0.92067   0.92254   0.92761
 Alpha virt. eigenvalues --    0.92921   0.93328   0.93660   0.94095   0.94194
 Alpha virt. eigenvalues --    0.94283   0.94500   0.94766   0.94976   0.95344
 Alpha virt. eigenvalues --    0.95488   0.96091   0.96546   0.96815   0.97047
 Alpha virt. eigenvalues --    0.97453   0.97679   0.97749   0.98464   0.98987
 Alpha virt. eigenvalues --    0.99249   0.99501   0.99639   1.00406   1.00843
 Alpha virt. eigenvalues --    1.01421   1.01451   1.01751   1.02023   1.02271
 Alpha virt. eigenvalues --    1.02874   1.03429   1.03808   1.03916   1.04381
 Alpha virt. eigenvalues --    1.04502   1.05335   1.05640   1.05997   1.06412
 Alpha virt. eigenvalues --    1.07133   1.07510   1.07843   1.08180   1.08412
 Alpha virt. eigenvalues --    1.09330   1.09550   1.09992   1.10174   1.11438
 Alpha virt. eigenvalues --    1.11832   1.12202   1.12379   1.13598   1.13796
 Alpha virt. eigenvalues --    1.14371   1.14740   1.15414   1.15768   1.16829
 Alpha virt. eigenvalues --    1.17335   1.18824   1.19079   1.20533   1.21593
 Alpha virt. eigenvalues --    1.22470   1.23483   1.24750   1.25829   1.25961
 Alpha virt. eigenvalues --    1.26956   1.28521   1.29937   1.30527   1.30891
 Alpha virt. eigenvalues --    1.31157   1.32155   1.34505   1.36100   1.37317
 Alpha virt. eigenvalues --    1.37705   1.38585   1.39076   1.39169   1.40533
 Alpha virt. eigenvalues --    1.41458   1.42979   1.43674   1.44408   1.45463
 Alpha virt. eigenvalues --    1.45857   1.46815   1.47157   1.48565   1.48743
 Alpha virt. eigenvalues --    1.48973   1.49374   1.50205   1.50514   1.51466
 Alpha virt. eigenvalues --    1.51760   1.53003   1.54106   1.55244   1.56800
 Alpha virt. eigenvalues --    1.58806   1.59361   1.60417   1.61165   1.62410
 Alpha virt. eigenvalues --    1.62956   1.64201   1.65233   1.65645   1.65983
 Alpha virt. eigenvalues --    1.66336   1.67133   1.68188   1.68510   1.68750
 Alpha virt. eigenvalues --    1.69074   1.69967   1.70334   1.70787   1.71842
 Alpha virt. eigenvalues --    1.73237   1.73781   1.74816   1.75660   1.76064
 Alpha virt. eigenvalues --    1.77455   1.78357   1.78938   1.79456   1.79995
 Alpha virt. eigenvalues --    1.84142   1.86880   1.88484   1.89118   1.90523
 Alpha virt. eigenvalues --    1.91060   1.92646   1.94667   1.94794   1.95092
 Alpha virt. eigenvalues --    1.96135   1.97068   1.97403   1.97803   1.99305
 Alpha virt. eigenvalues --    1.99760   2.00125   2.01005   2.02414   2.02830
 Alpha virt. eigenvalues --    2.03416   2.05153   2.06079   2.06528   2.07393
 Alpha virt. eigenvalues --    2.07949   2.09305   2.10223   2.10557   2.11127
 Alpha virt. eigenvalues --    2.11600   2.11829   2.12213   2.12290   2.13026
 Alpha virt. eigenvalues --    2.13482   2.13812   2.14462   2.14707   2.14991
 Alpha virt. eigenvalues --    2.16066   2.16735   2.17063   2.17309   2.17551
 Alpha virt. eigenvalues --    2.18269   2.18834   2.19177   2.19542   2.19626
 Alpha virt. eigenvalues --    2.20181   2.20468   2.21038   2.22494   2.23906
 Alpha virt. eigenvalues --    2.24294   2.24879   2.25388   2.26376   2.26984
 Alpha virt. eigenvalues --    2.27816   2.28459   2.28596   2.30221   2.30479
 Alpha virt. eigenvalues --    2.32473   2.32537   2.32827   2.33415   2.34347
 Alpha virt. eigenvalues --    2.34981   2.35310   2.35965   2.36321   2.36558
 Alpha virt. eigenvalues --    2.37884   2.38206   2.39558   2.39828   2.40734
 Alpha virt. eigenvalues --    2.41417   2.41546   2.42220   2.44095   2.46375
 Alpha virt. eigenvalues --    2.46619   2.47816   2.48025   2.49289   2.49641
 Alpha virt. eigenvalues --    2.51838   2.52322   2.54411   2.55963   2.56823
 Alpha virt. eigenvalues --    2.58439   2.59229   2.61129   2.62994   2.63570
 Alpha virt. eigenvalues --    2.65059   2.65743   2.66089   2.66688   2.67524
 Alpha virt. eigenvalues --    2.68110   2.68439   2.68601   2.69731   2.70223
 Alpha virt. eigenvalues --    2.70320   2.70741   2.71338   2.72268   2.72662
 Alpha virt. eigenvalues --    2.73454   2.73993   2.75033   2.75752   2.77060
 Alpha virt. eigenvalues --    2.77988   2.78392   2.79511   2.79808   2.80469
 Alpha virt. eigenvalues --    2.80918   2.81711   2.82766   2.84145   2.84526
 Alpha virt. eigenvalues --    2.85535   2.86078   2.86922   2.87288   2.87704
 Alpha virt. eigenvalues --    2.88245   2.89419   2.89847   2.90267   2.91017
 Alpha virt. eigenvalues --    2.92066   2.92148   2.92802   2.93297   2.93866
 Alpha virt. eigenvalues --    2.95092   2.95705   2.96566   2.96964   2.97656
 Alpha virt. eigenvalues --    2.97902   2.98113   2.99004   2.99154   3.00803
 Alpha virt. eigenvalues --    3.02514   3.03518   3.03747   3.04709   3.06217
 Alpha virt. eigenvalues --    3.07556   3.11821   3.18448   3.23220   3.25610
 Alpha virt. eigenvalues --    3.27105   3.28351   3.30039   3.30552   3.32022
 Alpha virt. eigenvalues --    3.36659   3.39506   3.39653   3.41367   3.45978
 Alpha virt. eigenvalues --    3.47504   3.48371   3.50048   3.51538   3.51900
 Alpha virt. eigenvalues --    3.52399   3.52998   3.54225   3.55159   3.56866
 Alpha virt. eigenvalues --    3.57499   3.58221   3.60447   3.61359   3.61918
 Alpha virt. eigenvalues --    3.62563   3.64397   3.65946   3.67666   5.99003
 Alpha virt. eigenvalues --    8.70680
  Beta  occ. eigenvalues -- -482.57976-101.66349-101.62418-101.61062-101.59906
  Beta  occ. eigenvalues -- -101.59172-101.56820 -61.66109 -56.22902 -56.22876
  Beta  occ. eigenvalues --  -56.22855 -19.25883 -14.52972 -14.44788 -14.44505
  Beta  occ. eigenvalues --  -14.41786 -14.39931 -14.38429 -14.35594 -10.36080
  Beta  occ. eigenvalues --  -10.35833 -10.34031 -10.32753 -10.32254 -10.31658
  Beta  occ. eigenvalues --  -10.31480 -10.31160 -10.30686 -10.30626 -10.29982
  Beta  occ. eigenvalues --  -10.29493 -10.29362 -10.28952 -10.27356 -10.27158
  Beta  occ. eigenvalues --  -10.26635 -10.25218 -10.24904 -10.24249  -9.59567
  Beta  occ. eigenvalues --   -9.55592  -9.54223  -9.53113  -9.52336  -9.50082
  Beta  occ. eigenvalues --   -8.44143  -7.35957  -7.35080  -7.34951  -7.32076
  Beta  occ. eigenvalues --   -7.30999  -7.30994  -7.30662  -7.29660  -7.29655
  Beta  occ. eigenvalues --   -7.29543  -7.28768  -7.28562  -7.28535  -7.27781
  Beta  occ. eigenvalues --   -7.27768  -7.26517  -7.25516  -7.25500  -6.45112
  Beta  occ. eigenvalues --   -6.45076  -6.45042  -3.79952  -2.57407  -2.57403
  Beta  occ. eigenvalues --   -2.57376  -2.57347  -2.57343  -2.48603  -2.48562
  Beta  occ. eigenvalues --   -2.48461  -2.16136  -1.15737  -1.13332  -1.09722
  Beta  occ. eigenvalues --   -1.08788  -1.06513  -1.01005  -0.98411  -0.96015
  Beta  occ. eigenvalues --   -0.94747  -0.93827  -0.93540  -0.92173  -0.89565
  Beta  occ. eigenvalues --   -0.88328  -0.87271  -0.87139  -0.86597  -0.83088
  Beta  occ. eigenvalues --   -0.82190  -0.82076  -0.77805  -0.75637  -0.75367
  Beta  occ. eigenvalues --   -0.74931  -0.73904  -0.72282  -0.69716  -0.67369
  Beta  occ. eigenvalues --   -0.67346  -0.67124  -0.65268  -0.65149  -0.63074
  Beta  occ. eigenvalues --   -0.62642  -0.61570  -0.60461  -0.59889  -0.59519
  Beta  occ. eigenvalues --   -0.59381  -0.57428  -0.57218  -0.55428  -0.55263
  Beta  occ. eigenvalues --   -0.55078  -0.53977  -0.53590  -0.53465  -0.51775
  Beta  occ. eigenvalues --   -0.51379  -0.50818  -0.50159  -0.49424  -0.49220
  Beta  occ. eigenvalues --   -0.48854  -0.48590  -0.48218  -0.47408  -0.47323
  Beta  occ. eigenvalues --   -0.47274  -0.47117  -0.46862  -0.46113  -0.45907
  Beta  occ. eigenvalues --   -0.45704  -0.45236  -0.44989  -0.44805  -0.44642
  Beta  occ. eigenvalues --   -0.44367  -0.43837  -0.43640  -0.43196  -0.43053
  Beta  occ. eigenvalues --   -0.42869  -0.42656  -0.42234  -0.42141  -0.41324
  Beta  occ. eigenvalues --   -0.41023  -0.40650  -0.40406  -0.39587  -0.39276
  Beta  occ. eigenvalues --   -0.39015  -0.38957  -0.38502  -0.37758  -0.37228
  Beta  occ. eigenvalues --   -0.37155  -0.36813  -0.36443  -0.34898  -0.34269
  Beta  occ. eigenvalues --   -0.33518  -0.31451  -0.30630  -0.29978  -0.29135
  Beta  occ. eigenvalues --   -0.26128  -0.23789  -0.22896  -0.22691  -0.22672
  Beta virt. eigenvalues --   -0.05914  -0.01247  -0.00778  -0.00460  -0.00005
  Beta virt. eigenvalues --    0.00724   0.04553   0.05055   0.05395   0.06382
  Beta virt. eigenvalues --    0.06997   0.07777   0.08356   0.09297   0.09786
  Beta virt. eigenvalues --    0.10135   0.10393   0.11123   0.11764   0.12098
  Beta virt. eigenvalues --    0.12395   0.12533   0.12681   0.13105   0.13463
  Beta virt. eigenvalues --    0.13513   0.14327   0.14573   0.14710   0.15115
  Beta virt. eigenvalues --    0.15691   0.15896   0.16372   0.16680   0.17202
  Beta virt. eigenvalues --    0.17675   0.18562   0.18642   0.19119   0.19964
  Beta virt. eigenvalues --    0.20255   0.20810   0.21150   0.21284   0.21627
  Beta virt. eigenvalues --    0.21985   0.21998   0.22369   0.22578   0.22900
  Beta virt. eigenvalues --    0.23547   0.23852   0.24049   0.24261   0.25109
  Beta virt. eigenvalues --    0.25725   0.25921   0.26631   0.26866   0.27021
  Beta virt. eigenvalues --    0.27563   0.27858   0.27941   0.28732   0.29573
  Beta virt. eigenvalues --    0.29945   0.30379   0.30697   0.31734   0.32145
  Beta virt. eigenvalues --    0.32370   0.32541   0.33121   0.33618   0.33902
  Beta virt. eigenvalues --    0.35350   0.36973   0.37363   0.38143   0.38969
  Beta virt. eigenvalues --    0.39384   0.39869   0.41159   0.41438   0.42341
  Beta virt. eigenvalues --    0.42943   0.43190   0.43606   0.44581   0.46089
  Beta virt. eigenvalues --    0.46613   0.46979   0.47223   0.48035   0.48741
  Beta virt. eigenvalues --    0.49106   0.49429   0.49923   0.50478   0.50803
  Beta virt. eigenvalues --    0.51018   0.51239   0.51596   0.51965   0.52651
  Beta virt. eigenvalues --    0.52931   0.53332   0.53758   0.54044   0.54471
  Beta virt. eigenvalues --    0.55280   0.55337   0.55946   0.56968   0.57347
  Beta virt. eigenvalues --    0.57536   0.58156   0.58593   0.59184   0.59442
  Beta virt. eigenvalues --    0.60041   0.60649   0.61051   0.61260   0.61580
  Beta virt. eigenvalues --    0.62082   0.62778   0.63541   0.64067   0.64389
  Beta virt. eigenvalues --    0.64696   0.65058   0.65289   0.65571   0.65900
  Beta virt. eigenvalues --    0.66108   0.66718   0.66747   0.67359   0.67542
  Beta virt. eigenvalues --    0.68056   0.68328   0.68637   0.68871   0.69413
  Beta virt. eigenvalues --    0.69890   0.70234   0.70449   0.70868   0.71305
  Beta virt. eigenvalues --    0.71390   0.72313   0.73112   0.73417   0.73501
  Beta virt. eigenvalues --    0.73916   0.74018   0.74607   0.75205   0.75995
  Beta virt. eigenvalues --    0.76093   0.76572   0.77218   0.78112   0.78775
  Beta virt. eigenvalues --    0.79950   0.80385   0.80919   0.81551   0.82145
  Beta virt. eigenvalues --    0.82615   0.82800   0.83333   0.83866   0.84733
  Beta virt. eigenvalues --    0.85333   0.85871   0.86688   0.86781   0.87140
  Beta virt. eigenvalues --    0.87538   0.87998   0.89071   0.89337   0.89793
  Beta virt. eigenvalues --    0.90067   0.90173   0.90472   0.90721   0.90805
  Beta virt. eigenvalues --    0.91055   0.91529   0.91807   0.91884   0.92049
  Beta virt. eigenvalues --    0.92084   0.92299   0.92891   0.92952   0.93378
  Beta virt. eigenvalues --    0.93723   0.94192   0.94264   0.94334   0.94547
  Beta virt. eigenvalues --    0.94958   0.95102   0.95374   0.95737   0.96356
  Beta virt. eigenvalues --    0.96684   0.96883   0.97140   0.97583   0.97759
  Beta virt. eigenvalues --    0.98151   0.98595   0.99220   0.99311   0.99545
  Beta virt. eigenvalues --    0.99937   1.00477   1.00962   1.01594   1.01661
  Beta virt. eigenvalues --    1.01872   1.02159   1.02696   1.03408   1.03607
  Beta virt. eigenvalues --    1.03899   1.04242   1.04475   1.04820   1.05383
  Beta virt. eigenvalues --    1.05700   1.06193   1.06607   1.07182   1.07681
  Beta virt. eigenvalues --    1.08055   1.08358   1.08493   1.09519   1.10075
  Beta virt. eigenvalues --    1.10205   1.10854   1.11762   1.12029   1.12386
  Beta virt. eigenvalues --    1.12556   1.13696   1.14084   1.14606   1.15038
  Beta virt. eigenvalues --    1.15547   1.16224   1.17054   1.17794   1.18947
  Beta virt. eigenvalues --    1.19307   1.20797   1.22127   1.22827   1.23654
  Beta virt. eigenvalues --    1.25067   1.25868   1.26009   1.27053   1.28625
  Beta virt. eigenvalues --    1.29992   1.30546   1.31032   1.31242   1.32277
  Beta virt. eigenvalues --    1.34587   1.36159   1.37387   1.37788   1.38697
  Beta virt. eigenvalues --    1.39164   1.39211   1.40592   1.41523   1.43066
  Beta virt. eigenvalues --    1.43718   1.44504   1.45539   1.45923   1.46874
  Beta virt. eigenvalues --    1.47259   1.48662   1.48832   1.49085   1.49382
  Beta virt. eigenvalues --    1.50279   1.50582   1.51494   1.51975   1.53173
  Beta virt. eigenvalues --    1.54169   1.55317   1.56940   1.58890   1.59410
  Beta virt. eigenvalues --    1.60546   1.61185   1.62431   1.62974   1.64277
  Beta virt. eigenvalues --    1.65326   1.65655   1.66057   1.66440   1.67240
  Beta virt. eigenvalues --    1.68273   1.68563   1.68794   1.69166   1.70095
  Beta virt. eigenvalues --    1.70388   1.70882   1.71922   1.73353   1.73841
  Beta virt. eigenvalues --    1.74909   1.75793   1.76090   1.77726   1.78528
  Beta virt. eigenvalues --    1.79062   1.79689   1.80003   1.84145   1.87038
  Beta virt. eigenvalues --    1.88487   1.89128   1.90568   1.91070   1.92705
  Beta virt. eigenvalues --    1.94692   1.94851   1.95111   1.96172   1.97104
  Beta virt. eigenvalues --    1.97472   1.97904   1.99312   1.99877   2.00149
  Beta virt. eigenvalues --    2.01138   2.02529   2.02834   2.03544   2.05154
  Beta virt. eigenvalues --    2.06084   2.06589   2.07477   2.07958   2.09365
  Beta virt. eigenvalues --    2.10227   2.10607   2.11252   2.11624   2.11842
  Beta virt. eigenvalues --    2.12222   2.12323   2.13034   2.13501   2.13860
  Beta virt. eigenvalues --    2.14500   2.14720   2.15045   2.16076   2.16766
  Beta virt. eigenvalues --    2.17075   2.17314   2.17585   2.18323   2.18838
  Beta virt. eigenvalues --    2.19185   2.19586   2.19639   2.20195   2.20531
  Beta virt. eigenvalues --    2.21041   2.22499   2.23930   2.24371   2.24927
  Beta virt. eigenvalues --    2.25493   2.26494   2.26996   2.27822   2.28492
  Beta virt. eigenvalues --    2.28635   2.30277   2.30500   2.32503   2.32555
  Beta virt. eigenvalues --    2.32861   2.33475   2.34368   2.35028   2.35379
  Beta virt. eigenvalues --    2.35973   2.36372   2.36634   2.37922   2.38259
  Beta virt. eigenvalues --    2.39594   2.39889   2.40759   2.41470   2.41596
  Beta virt. eigenvalues --    2.42297   2.44129   2.46391   2.46655   2.47817
  Beta virt. eigenvalues --    2.48076   2.49299   2.49744   2.51839   2.52326
  Beta virt. eigenvalues --    2.54413   2.55969   2.56856   2.58441   2.59268
  Beta virt. eigenvalues --    2.61132   2.63046   2.63640   2.65135   2.65751
  Beta virt. eigenvalues --    2.66143   2.66738   2.67589   2.68158   2.68486
  Beta virt. eigenvalues --    2.68623   2.69783   2.70262   2.70381   2.70838
  Beta virt. eigenvalues --    2.71366   2.72331   2.72712   2.73517   2.74025
  Beta virt. eigenvalues --    2.75057   2.75755   2.77175   2.77997   2.78511
  Beta virt. eigenvalues --    2.79551   2.79825   2.80472   2.80968   2.81718
  Beta virt. eigenvalues --    2.82767   2.84190   2.84561   2.85564   2.86102
  Beta virt. eigenvalues --    2.86942   2.87316   2.87750   2.88305   2.89421
  Beta virt. eigenvalues --    2.89920   2.90335   2.91021   2.92079   2.92211
  Beta virt. eigenvalues --    2.92842   2.93302   2.93894   2.95095   2.95715
  Beta virt. eigenvalues --    2.96628   2.97065   2.97701   2.97910   2.98124
  Beta virt. eigenvalues --    2.99039   2.99169   3.00803   3.02515   3.03548
  Beta virt. eigenvalues --    3.03752   3.04712   3.06260   3.07634   3.11869
  Beta virt. eigenvalues --    3.18496   3.23274   3.25677   3.27106   3.28351
  Beta virt. eigenvalues --    3.30045   3.30552   3.32023   3.36659   3.39507
  Beta virt. eigenvalues --    3.39653   3.41385   3.45978   3.47504   3.48372
  Beta virt. eigenvalues --    3.50065   3.51539   3.51902   3.52405   3.52998
  Beta virt. eigenvalues --    3.54233   3.55159   3.56872   3.57534   3.58223
  Beta virt. eigenvalues --    3.60447   3.61386   3.61921   3.62601   3.64400
  Beta virt. eigenvalues --    3.65959   3.67669   5.98106   8.70680
          Condensed to atoms (all electrons):
          Atomic-Atomic Spin Densities.
 Mulliken charges and spin densities:
               1          2
     1  Li   0.605566   0.000526
     2  N   -0.504790   0.001543
     3  C    0.065742   0.004175
     4  Cl   0.063565   0.001136
     5  N   -0.403921   0.001740
     6  C    0.003235   0.007152
     7  Cl  -0.024955   0.001233
     8  N   -0.368398   0.004524
     9  C    0.016356   0.012942
    10  Cl  -0.024797   0.001460
    11  N   -0.504646   0.046399
    12  C    0.056029  -0.000786
    13  Cl   0.067632   0.000825
    14  N   -0.553005   0.069859
    15  C    0.037557  -0.007755
    16  Cl  -0.017628   0.001298
    17  N   -0.529986   0.055046
    18  C    0.018933  -0.003076
    19  Cl  -0.006997   0.000759
    20  C    0.251332   0.002840
    21  H    0.153843   0.000549
    22  C    0.181529   0.009033
    23  H    0.103706  -0.000091
    24  C    0.193994   0.002245
    25  H    0.125753   0.000475
    26  Co   0.809752   2.732535
    27  C    0.170216   0.002838
    28  C    0.018015   0.000605
    29  O   -0.540269   0.044816
    30  C   -0.336186   0.000684
    31  H    0.163539   0.001146
    32  H    0.154932   0.001177
    33  H    0.117024   0.000047
    34  H    0.118804  -0.000054
    35  H    0.163604   0.000698
    36  H    0.141866   0.001224
    37  N   -0.377482  -0.000002
    38  C   -0.073674   0.000004
    39  C   -0.339813   0.000000
    40  H    0.201876   0.000014
    41  H    0.121566   0.000001
    42  H    0.142860   0.000000
    43  H    0.132819   0.000000
    44  H    0.105222   0.000000
    45  C   -0.059775  -0.000000
    46  C   -0.344911   0.000007
    47  H    0.142113   0.000000
    48  H    0.129196  -0.000000
    49  H    0.121898   0.000002
    50  H    0.151418   0.000000
    51  H    0.145238   0.000002
    52  C   -0.087339   0.000019
    53  C   -0.351391   0.000015
    54  H    0.181067   0.000028
    55  H    0.118126   0.000001
    56  H    0.129872   0.000004
    57  H    0.174382  -0.000000
    58  H    0.120467   0.000006
    59  C   -0.074965   0.000028
    60  C   -0.343202   0.000002
    61  H    0.146108  -0.000013
    62  H    0.175517  -0.000005
    63  H    0.136172  -0.000002
    64  H    0.093260   0.000000
    65  H    0.161538  -0.000001
    66  Br  -0.765107   0.000128
 Sum of Mulliken charges =   0.00000   3.00000
 Mulliken charges and spin densities with hydrogens summed into heavy atoms:
               1          2
     1  Li   0.605566   0.000526
     2  N   -0.504790   0.001543
     3  C    0.065742   0.004175
     4  Cl   0.063565   0.001136
     5  N   -0.403921   0.001740
     6  C    0.003235   0.007152
     7  Cl  -0.024955   0.001233
     8  N   -0.368398   0.004524
     9  C    0.016356   0.012942
    10  Cl  -0.024797   0.001460
    11  N   -0.504646   0.046399
    12  C    0.056029  -0.000786
    13  Cl   0.067632   0.000825
    14  N   -0.553005   0.069859
    15  C    0.037557  -0.007755
    16  Cl  -0.017628   0.001298
    17  N   -0.529986   0.055046
    18  C    0.018933  -0.003076
    19  Cl  -0.006997   0.000759
    20  C    0.405174   0.003388
    22  C    0.285236   0.008942
    24  C    0.319747   0.002719
    26  Co   0.809752   2.732535
    27  C    0.312081   0.004062
    28  C    0.336485   0.002928
    29  O   -0.540269   0.044816
    30  C    0.063247   0.001375
    37  N   -0.377482  -0.000002
    38  C    0.249768   0.000019
    39  C    0.041088   0.000000
    45  C    0.211534  -0.000000
    46  C    0.073644   0.000011
    52  C    0.211853   0.000048
    53  C    0.073330   0.000024
    59  C    0.246659   0.000010
    60  C    0.047767  -0.000001
    66  Br  -0.765107   0.000128
 Electronic spatial extent (au):  <R**2>=          29186.6576
 Charge=              0.0000 electrons
 Dipole moment (field-independent basis, Debye):
    X=              5.7658    Y=             -9.0488    Z=            -11.9204  Tot=             16.0381
 Quadrupole moment (field-independent basis, Debye-Ang):
   XX=           -308.7533   YY=           -148.4439   ZZ=           -280.3504
   XY=             50.1955   XZ=              4.8786   YZ=             32.3101
 Traceless Quadrupole moment (field-independent basis, Debye-Ang):
   XX=            -62.9041   YY=             97.4053   ZZ=            -34.5012
   XY=             50.1955   XZ=              4.8786   YZ=             32.3101
 Octapole moment (field-independent basis, Debye-Ang**2):
  XXX=            223.4438  YYY=           -411.7883  ZZZ=           -114.0275  XYY=              4.5187
  XXY=            -11.2246  XXZ=            -24.7029  XZZ=           -132.0460  YZZ=           -342.4347
  YYZ=           -400.3108  XYZ=           -134.0632
 Hexadecapole moment (field-independent basis, Debye-Ang**3):
 XXXX=         -14826.2102 YYYY=         -11682.5487 ZZZZ=          -5830.7971 XXXY=          -3030.7357
 XXXZ=           -256.9028 YYYX=          -1837.4688 YYYZ=           1488.9067 ZZZX=           -347.1017
 ZZZY=           -335.6474 XXYY=          -4488.9579 XXZZ=          -3466.2381 YYZZ=          -2593.1027
 XXYZ=           -308.6092 YYXZ=            375.6973 ZZXY=          -1002.7593
 N-N= 6.747490584502D+03 E-N=-2.945366137911D+04  KE= 6.651352146040D+03
  Exact polarizability: 356.050  15.069 371.681 -16.976   4.437 330.131
 Approx polarizability: 408.363 -10.993 412.335 -28.596  -0.554 416.892
                          Isotropic Fermi Contact Couplings
        Atom                 a.u.       MegaHertz       Gauss      10(-4) cm-1
     1  Li(7)              0.00012       0.06790       0.02423       0.02265
     2  N(14)              0.00141       0.15226       0.05433       0.05079
     3  C(13)              0.00407       1.52451       0.54398       0.50852
     4  Cl(35)             0.00081       0.11830       0.04221       0.03946
     5  N(14)              0.00011       0.01225       0.00437       0.00409
     6  C(13)              0.00405       1.51714       0.54135       0.50606
     7  Cl(35)             0.00057       0.08268       0.02950       0.02758
     8  N(14)              0.00020       0.02154       0.00769       0.00719
     9  C(13)              0.00482       1.80492       0.64404       0.60206
    10  Cl(35)             0.00043       0.06266       0.02236       0.02090
    11  N(14)              0.06373       6.86412       2.44929       2.28962
    12  C(13)              0.00142       0.53342       0.19034       0.17793
    13  Cl(35)             0.00131       0.19192       0.06848       0.06402
    14  N(14)              0.06434       6.92977       2.47271       2.31152
    15  C(13)             -0.00036      -0.13561      -0.04839      -0.04523
    16  Cl(35)             0.00228       0.33256       0.11867       0.11093
    17  N(14)              0.06398       6.89025       2.45861       2.29834
    18  C(13)              0.00196       0.73417       0.26197       0.24489
    19  Cl(35)             0.00179       0.26211       0.09353       0.08743
    20  C(13)              0.00259       0.97052       0.34631       0.32373
    21  H(1)               0.00022       0.32390       0.11558       0.10804
    22  C(13)              0.00408       1.53041       0.54609       0.51049
    23  H(1)               0.00006       0.08237       0.02939       0.02748
    24  C(13)              0.00256       0.95872       0.34210       0.31980
    25  H(1)               0.00018       0.26481       0.09449       0.08833
    26  Co(59)             0.00000       0.00096       0.00034       0.00032
    27  C(13)              0.00037       0.13735       0.04901       0.04582
    28  C(13)             -0.00001      -0.00551      -0.00197      -0.00184
    29  O(17)              0.07197     -14.54254      -5.18914      -4.85087
    30  C(13)              0.00072       0.26894       0.09596       0.08971
    31  H(1)               0.00056       0.83856       0.29922       0.27971
    32  H(1)               0.00057       0.84559       0.30173       0.28206
    33  H(1)               0.00003       0.05028       0.01794       0.01677
    34  H(1)               0.00000       0.00443       0.00158       0.00148
    35  H(1)               0.00031       0.46516       0.16598       0.15516
    36  H(1)               0.00038       0.56476       0.20152       0.18838
    37  N(14)             -0.00000      -0.00030      -0.00011      -0.00010
    38  C(13)              0.00001       0.00490       0.00175       0.00163
    39  C(13)              0.00000       0.00006       0.00002       0.00002
    40  H(1)              -0.00000      -0.00078      -0.00028      -0.00026
    41  H(1)               0.00000       0.00055       0.00020       0.00018
    42  H(1)               0.00000       0.00001       0.00000       0.00000
    43  H(1)               0.00000       0.00007       0.00002       0.00002
    44  H(1)               0.00000       0.00009       0.00003       0.00003
    45  C(13)             -0.00000      -0.00008      -0.00003      -0.00003
    46  C(13)              0.00000       0.00111       0.00039       0.00037
    47  H(1)               0.00000       0.00008       0.00003       0.00003
    48  H(1)               0.00000       0.00004       0.00001       0.00001
    49  H(1)               0.00000       0.00068       0.00024       0.00023
    50  H(1)               0.00000       0.00037       0.00013       0.00012
    51  H(1)               0.00000       0.00089       0.00032       0.00030
    52  C(13)              0.00002       0.00794       0.00283       0.00265
    53  C(13)              0.00002       0.00573       0.00205       0.00191
    54  H(1)              -0.00000      -0.00169      -0.00060      -0.00056
    55  H(1)               0.00000       0.00035       0.00013       0.00012
    56  H(1)               0.00000       0.00131       0.00047       0.00044
    57  H(1)               0.00000       0.00180       0.00064       0.00060
    58  H(1)               0.00000       0.00275       0.00098       0.00092
    59  C(13)             -0.00000      -0.00151      -0.00054      -0.00050
    60  C(13)             -0.00000      -0.00060      -0.00021      -0.00020
    61  H(1)              -0.00000      -0.00128      -0.00046      -0.00043
    62  H(1)               0.00000       0.00038       0.00014       0.00013
    63  H(1)               0.00000       0.00101       0.00036       0.00034
    64  H(1)               0.00000       0.00031       0.00011       0.00010
    65  H(1)               0.00000       0.00200       0.00071       0.00067
    66  Br(79)             0.00005       0.01870       0.00667       0.00624
 --------------------------------------------------------
       Center         ----  Spin Dipole Couplings  ----
                      3XX-RR        3YY-RR        3ZZ-RR
 --------------------------------------------------------
     1   Atom       -0.002045      0.002168     -0.000123
     2   Atom       -0.007546      0.008341     -0.000795
     3   Atom       -0.003072      0.008122     -0.005050
     4   Atom       -0.002494      0.006425     -0.003932
     5   Atom       -0.001633      0.004719     -0.003086
     6   Atom        0.001382     -0.004206      0.002824
     7   Atom        0.001061     -0.002005      0.000945
     8   Atom        0.011748     -0.001595     -0.010153
     9   Atom        0.005777      0.006606     -0.012383
    10   Atom        0.004596      0.004954     -0.009550
    11   Atom       -0.068008      0.119086     -0.051078
    12   Atom       -0.010058      0.024616     -0.014559
    13   Atom       -0.006349      0.007398     -0.001049
    14   Atom        0.106783     -0.002930     -0.103853
    15   Atom        0.019909     -0.014917     -0.004992
    16   Atom        0.006716     -0.014000      0.007284
    17   Atom        0.019308     -0.021620      0.002312
    18   Atom        0.024657     -0.014271     -0.010386
    19   Atom        0.014898     -0.006913     -0.007985
    20   Atom       -0.014617      0.008361      0.006256
    21   Atom       -0.012043     -0.001588      0.013632
    22   Atom        0.005218      0.001690     -0.006908
    23   Atom       -0.002015     -0.007037      0.009053
    24   Atom       -0.012418      0.011527      0.000892
    25   Atom       -0.012794      0.016911     -0.004117
    26   Atom        0.160343      0.225642     -0.385985
    27   Atom        0.007383     -0.012955      0.005572
    28   Atom       -0.011011     -0.006807      0.017817
    29   Atom       -0.098861     -0.111153      0.210015
    30   Atom        0.002564     -0.006080      0.003517
    31   Atom       -0.013350      0.009897      0.003453
    32   Atom       -0.007024     -0.004893      0.011917
    33   Atom        0.003188     -0.003661      0.000474
    34   Atom       -0.001534     -0.004327      0.005861
    35   Atom        0.001616     -0.003113      0.001497
    36   Atom        0.018357     -0.011897     -0.006460
    37   Atom       -0.000150      0.001548     -0.001399
    38   Atom       -0.000282      0.001218     -0.000936
    39   Atom       -0.000019      0.000585     -0.000567
    40   Atom       -0.000394      0.001361     -0.000967
    41   Atom       -0.000505      0.001340     -0.000835
    42   Atom       -0.000101      0.000512     -0.000411
    43   Atom        0.000201      0.000360     -0.000561
    44   Atom       -0.000031      0.000513     -0.000482
    45   Atom       -0.000005      0.000848     -0.000843
    46   Atom        0.000042      0.000634     -0.000676
    47   Atom        0.000203      0.000497     -0.000700
    48   Atom       -0.000199      0.000862     -0.000664
    49   Atom        0.000031      0.000380     -0.000411
    50   Atom        0.000451      0.000317     -0.000769
    51   Atom       -0.000333      0.000934     -0.000601
    52   Atom       -0.001143      0.003023     -0.001880
    53   Atom       -0.002231      0.004826     -0.002595
    54   Atom       -0.001331      0.003482     -0.002152
    55   Atom       -0.000938      0.002138     -0.001201
    56   Atom       -0.003298      0.006695     -0.003397
    57   Atom       -0.002628      0.005689     -0.003061
    58   Atom       -0.001560      0.003120     -0.001560
    59   Atom        0.000958      0.001082     -0.002040
    60   Atom        0.001263      0.000015     -0.001278
    61   Atom        0.001436      0.000938     -0.002375
    62   Atom        0.000946      0.001802     -0.002748
    63   Atom        0.002152     -0.000630     -0.001522
    64   Atom        0.000905      0.000013     -0.000918
    65   Atom        0.000911      0.000032     -0.000943
    66   Atom       -0.001479      0.002253     -0.000774
 --------------------------------------------------------
                        XY            XZ            YZ
 --------------------------------------------------------
     1   Atom        0.000578      0.000371      0.002899
     2   Atom        0.003837      0.003013      0.011883
     3   Atom        0.002201      0.002506      0.003149
     4   Atom        0.003123      0.003191      0.005285
     5   Atom        0.011093     -0.009412     -0.011640
     6   Atom        0.006606     -0.004221     -0.000611
     7   Atom        0.007569     -0.003112     -0.001971
     8   Atom       -0.013986     -0.010814      0.005521
     9   Atom        0.000461     -0.000864     -0.002833
    10   Atom        0.001479     -0.004113      0.000008
    11   Atom        0.028225      0.019472      0.078241
    12   Atom        0.017169     -0.003799     -0.002028
    13   Atom        0.012822     -0.007683     -0.009032
    14   Atom       -0.099281     -0.035583      0.011926
    15   Atom       -0.023282      0.015463     -0.004740
    16   Atom       -0.014265      0.020793     -0.006573
    17   Atom        0.089931     -0.086181     -0.062692
    18   Atom        0.001746     -0.022679     -0.005752
    19   Atom       -0.010231     -0.012125      0.001069
    20   Atom       -0.002864      0.002013      0.022348
    21   Atom       -0.004066     -0.007117      0.017316
    22   Atom       -0.011959     -0.020520      0.011982
    23   Atom       -0.008493     -0.014025      0.011484
    24   Atom        0.012988     -0.007879     -0.020003
    25   Atom        0.001825     -0.001659     -0.017323
    26   Atom       -0.082894     -0.169576      0.011540
    27   Atom        0.009133      0.024298      0.008831
    28   Atom        0.007406      0.015579      0.019907
    29   Atom       -0.011113      0.089563     -0.049740
    30   Atom       -0.001395      0.009178     -0.001299
    31   Atom        0.008274      0.007364      0.021599
    32   Atom        0.001168      0.002851      0.007649
    33   Atom       -0.002973      0.006449     -0.002231
    34   Atom       -0.000931      0.005646     -0.001878
    35   Atom        0.000539      0.004877      0.000492
    36   Atom        0.009910      0.015102      0.004077
    37   Atom        0.001936     -0.000022     -0.000020
    38   Atom        0.001286      0.000240      0.000417
    39   Atom        0.000867      0.000200      0.000283
    40   Atom        0.001545      0.000526      0.000905
    41   Atom        0.000916      0.000134      0.000331
    42   Atom        0.000679      0.000235      0.000365
    43   Atom        0.000919      0.000253      0.000278
    44   Atom        0.000689      0.000085      0.000127
    45   Atom        0.001246     -0.000214     -0.000291
    46   Atom        0.001261     -0.000539     -0.000675
    47   Atom        0.001058     -0.000115     -0.000128
    48   Atom        0.000885     -0.000139     -0.000239
    49   Atom        0.000843     -0.000414     -0.000505
    50   Atom        0.001526     -0.000788     -0.000741
    51   Atom        0.001278     -0.000658     -0.001048
    52   Atom        0.001996     -0.000219     -0.000468
    53   Atom        0.001718      0.000129      0.000637
    54   Atom        0.002781     -0.000798     -0.001602
    55   Atom        0.001083     -0.000181     -0.000540
    56   Atom        0.000656     -0.000047     -0.000148
    57   Atom        0.003116      0.000763      0.002346
    58   Atom        0.000777      0.000124      0.000819
    59   Atom        0.003138      0.000119      0.000155
    60   Atom        0.001894      0.000334      0.000247
    61   Atom        0.003782     -0.000744     -0.000652
    62   Atom        0.004446      0.001006      0.001125
    63   Atom        0.001917      0.000402      0.000201
    64   Atom        0.001318      0.000051      0.000039
    65   Atom        0.001575      0.000646      0.000491
    66   Atom        0.002936      0.001285      0.002003
 --------------------------------------------------------


 ---------------------------------------------------------------------------------
              Anisotropic Spin Dipole Couplings in Principal Axis System
 ---------------------------------------------------------------------------------

       Atom             a.u.   MegaHertz   Gauss  10(-4) cm-1        Axes

              Baa    -0.0021    -0.442    -0.158    -0.147  0.8845 -0.3368  0.3229
     1 Li(7)  Bbb    -0.0021    -0.432    -0.154    -0.144 -0.4537 -0.4590  0.7639
              Bcc     0.0042     0.874     0.312     0.292  0.1091  0.8221  0.5587
 
              Baa    -0.0091    -0.351    -0.125    -0.117 -0.4366 -0.4388  0.7854
     2 N(14)  Bbb    -0.0083    -0.322    -0.115    -0.107  0.8791 -0.3936  0.2688
              Bcc     0.0175     0.673     0.240     0.225  0.1912  0.8078  0.5576
 
              Baa    -0.0069    -0.926    -0.331    -0.309 -0.5008 -0.1067  0.8590
     3 C(13)  Bbb    -0.0025    -0.339    -0.121    -0.113  0.8384 -0.3065  0.4507
              Bcc     0.0094     1.266     0.452     0.422  0.2152  0.9459  0.2429
 
              Baa    -0.0070    -0.368    -0.131    -0.123 -0.4458 -0.2358  0.8635
     4 Cl(35) Bbb    -0.0030    -0.157    -0.056    -0.052  0.8373 -0.4509  0.3091
              Bcc     0.0100     0.524     0.187     0.175  0.3165  0.8609  0.3985
 
              Baa    -0.0121    -0.467    -0.166    -0.156  0.4639  0.2765  0.8416
     5 N(14)  Bbb    -0.0099    -0.382    -0.136    -0.127  0.7147 -0.6782 -0.1711
              Bcc     0.0220     0.849     0.303     0.283  0.5235  0.6809 -0.5122
 
              Baa    -0.0089    -1.194    -0.426    -0.398 -0.5809  0.7965 -0.1677
     6 C(13)  Bbb     0.0004     0.055     0.020     0.018  0.3915  0.4540  0.8004
              Bcc     0.0085     1.138     0.406     0.380  0.7137  0.3993 -0.5755
 
              Baa    -0.0082    -0.430    -0.153    -0.143 -0.6419  0.7650 -0.0534
     7 Cl(35) Bbb    -0.0007    -0.037    -0.013    -0.012  0.2887  0.3056  0.9074
              Bcc     0.0089     0.467     0.167     0.156  0.7104  0.5670 -0.4169
 
              Baa    -0.0146    -0.563    -0.201    -0.188  0.3957  0.0360  0.9177
     8 N(14)  Bbb    -0.0102    -0.392    -0.140    -0.131  0.4429  0.8679 -0.2250
              Bcc     0.0248     0.955     0.341     0.319  0.8045 -0.4955 -0.3275
 
              Baa    -0.0128    -1.722    -0.614    -0.574  0.0423  0.1431  0.9888
     9 C(13)  Bbb     0.0056     0.748     0.267     0.250  0.9269 -0.3751  0.0146
              Bcc     0.0073     0.973     0.347     0.325  0.3730  0.9159 -0.1486
 
              Baa    -0.0107    -0.558    -0.199    -0.186  0.2624 -0.0254  0.9646
    10 Cl(35) Bbb     0.0039     0.202     0.072     0.067 -0.5850  0.7909  0.1799
              Bcc     0.0068     0.356     0.127     0.119  0.7674  0.6115 -0.1927
 
              Baa    -0.0862    -3.325    -1.186    -1.109 -0.5040 -0.2462  0.8279
[...]
 0000038,-0.00008830,-0.00008273,-0.00004288,-0.00001285,-0.00000499,0.
 00000959,0.00003195,0.00000200,-0.00000190,0.00000208,-0.00000797,0.00
 000223,-0.00000005,-0.00000853,-0.00000365,0.00000117,-0.00000584,0.00
 000683,-0.00001034,0.00001910,-0.00000382,-0.00000109,0.00004536,0.000
 01570,0.00184577,-0.00041802,0.00067646,-0.00036627,0.00004521,-0.0001
 0841,-0.00017639,0.00010662,-0.00033771,0.00000560,-0.00019419,-0.0000
 6987,0.00005235,0.00008652,0.00006458,0.00016049,-0.00009838,-0.000032
 15,0.00026499,-0.00004292,0.00030439,0.00003715,0.00009889,0.00003568,
 -0.00118474,-0.00024600,0.00016451,0.00029472,0.00014468,-0.00023252,0
 .00056647,0.00139139,-0.00019635,0.00058316,0.00010290,-0.00005559,-0.
 00000369,-0.00000624,-0.00003274,-0.00022879,-0.00012245,-0.00024615,0
 .00006979,-0.00008548,0.00015423,0.00004654,-0.00027621,-0.00002108,0.
 00004357,0.00002981,0.00010086,0.00007141,-0.00007125,0.00011126,0.000
 00851,0.00019003,-0.00003539,-0.00000680,0.00004259,-0.00003554,0.0001
 4514,0.00003496,-0.00016626,-0.00005323,0.00007739,-0.00003304,-0.0194
 0094,-0.01865361,0.01919668,-0.16535825,-0.09365675,0.09302799,0.00060
 575,0.00025074,-0.00016058,-0.00515048,0.00159587,-0.00364045,0.004694
 19,0.00306210,-0.00426140,0.17896236,0.,0.,0.,0.,0.,0.,0.00000361,0.00
 000832,0.00000135,-0.00000275,-0.00000922,-0.00000290,0.,0.,0.,-0.0001
 8966,0.00001042,0.00012928,0.00010523,0.00001113,-0.00008282,0.,0.,0.,
 0.00001129,-0.00000326,0.00000833,-0.00001045,0.00000390,-0.00000549,-
 0.00000746,-0.00002076,-0.00001815,0.00000320,0.00000890,0.00000175,0.
 00000037,-0.00000184,-0.00000412,-0.00002385,0.00000332,-0.00000673,0.
 00000159,0.00000295,0.00001818,-0.00000047,-0.00000278,-0.00000948,0.0
 0005879,-0.00001051,-0.00004873,0.00003396,-0.00004006,-0.00000241,-0.
 00001614,0.00001950,-0.00001369,-0.00000264,0.00001103,0.00001785,0.00
 000060,0.00000081,0.00000328,0.00001135,-0.00000879,-0.00000366,0.0000
 0347,0.00000205,-0.00000411,0.00002429,0.00001848,-0.00001741,0.000008
 19,0.00000507,0.00000033,0.00005334,0.00002112,0.00007393,0.00009018,0
 .00005299,-0.00001565,0.00002601,0.00001138,0.00000462,-0.00010904,-0.
 00005811,-0.00005072,-0.00001005,0.00000313,0.00001544,0.00000721,0.00
 000207,0.00000234,-0.00000295,-0.00000214,-0.00000050,0.00000578,0.000
 00869,-0.00000380,-0.00001329,-0.00000619,0.00000515,0.00000367,0.0000
 1164,-0.00002952,0.00003799,0.00000996,0.00002463,-0.00084617,0.000965
 64,-0.00061575,0.00018161,-0.00013093,-0.00026388,-0.00006777,0.000052
 01,-0.00020505,0.00000913,0.00002117,0.00000349,-0.00001855,0.00002526
 ,0.00002642,0.00001377,0.00001368,0.00004830,0.00015949,-0.00037844,-0
 .00048415,-0.00000607,-0.00000256,0.00000460,0.00054533,-0.00104597,0.
 00073114,-0.00007214,0.00015061,-0.00009622,0.00118731,-0.00149486,0.0
 0095864,0.00005455,0.00012845,-0.00018568,0.00000593,-0.00001480,-0.00
 003158,-0.00014539,-0.00001101,-0.00010906,0.00002415,-0.00003403,-0.0
 0004534,0.00021553,0.00024316,0.00011762,-0.00003993,-0.00001243,-0.00
 009097,-0.00003104,0.00001099,0.00001040,-0.00011212,0.00000573,-0.000
 01448,-0.00002657,-0.00000142,0.00002152,0.00001825,-0.00000466,0.0000
 2615,0.00001265,-0.00000904,0.00001187,0.00595439,0.00278633,-0.004749
 63,-0.09508885,-0.12295547,0.07671163,-0.00055460,-0.00017781,0.000077
 67,0.00166547,0.00073654,0.00006715,-0.02156846,-0.01495607,0.01788270
 ,0.10271994,0.13321743,0.,0.,0.,0.,0.,0.,-0.00000422,-0.00000950,-0.00
 000061,0.00000311,0.00000909,0.00000221,0.,0.,0.,-0.00007565,0.0000092
 4,0.00003038,0.00004772,0.00001806,0.00000754,0.,0.,0.,-0.00001310,0.0
 0000464,-0.00001025,0.00001304,-0.00000604,0.00000673,0.00000925,0.000
 01745,0.00001603,-0.00000357,-0.00000776,-0.00000069,0.00000027,0.0000
 0156,0.00000245,0.00003293,-0.00001212,0.00000536,-0.00000493,-0.00000
 041,-0.00001567,0.00000166,0.00000116,0.00000760,0.00002224,-0.0000071
 0,0.00000851,0.00000888,-0.00000212,0.00000225,0.00000656,-0.00000515,
 0.00000689,0.00000148,-0.00000935,-0.00001397,-0.00000160,-0.00000071,
 -0.00000191,-0.00001749,0.00001199,0.00000424,-0.00000399,-0.00000120,
 0.00000403,0.00001279,0.00002022,-0.00001745,0.00000395,0.00000204,-0.
 00000112,-0.00006499,-0.00001078,-0.00007729,-0.00003778,-0.00006981,-
 0.00003997,-0.00008248,-0.00005331,-0.00002486,0.00012180,0.00010893,0
 .00009898,-0.00000701,-0.00000319,-0.00000633,-0.00001560,0.00000702,-
 0.00001181,-0.00000967,-0.00000473,0.00000565,-0.00000011,0.00000570,0
 .00000502,0.00000976,0.00000278,-0.00000036,0.00000489,-0.00003117,0.0
 0001954,-0.00000682,-0.00000692,-0.00002374,0.00090962,0.00072378,0.00
 008933,0.00020650,0.00026581,0.00000405,0.00040416,-0.00009200,0.00040
 780,-0.00010207,0.00016356,-0.00012008,-0.00009576,-0.00009599,0.00002
 942,-0.00021094,0.00022507,0.00002310,-0.00005912,0.00000455,-0.000673
 28,-0.00006390,-0.00000094,-0.00000096,-0.00008245,0.00097018,0.000024
 06,-0.00006498,0.00013785,0.00011210,-0.00062909,0.00061128,0.00002923
 ,-0.00004978,-0.00009975,0.00001538,-0.00000897,0.00000724,-0.00000490
 ,-0.00006467,-0.00012041,-0.00014852,0.00003698,-0.00013215,-0.0000367
 0,0.00017313,-0.00029853,0.00000648,-0.00000982,-0.00002556,0.00007018
 ,-0.00003138,-0.00000339,0.00000521,0.00006093,-0.00001411,0.00001431,
 -0.00000422,-0.00000822,0.00000514,-0.00003432,0.00003937,-0.00009473,
 0.00000011,0.00001090,-0.00002070,-0.00577161,-0.00828007,0.00649112,0
 .09279594,0.07688197,-0.12987221,0.00045061,-0.00029859,0.00031731,-0.
 00176097,0.00079696,-0.00034872,-0.00485763,-0.00301710,0.00261158,-0.
 10253094,-0.08657784,0.13300423,0.,0.,0.,0.,0.,0.,-0.00000361,-0.00000
 560,0.00000398,-0.00000047,0.00000173,0.00000302,0.,0.,0.,-0.00011083,
 0.00016155,-0.00001816,-0.00001878,-0.00004365,0.00000457,0.,0.,0.,-0.
 00000891,0.00000358,-0.00000253,0.00000960,-0.00000390,0.00000747,-0.0
 0000650,0.00000422,0.00003282,0.00000593,-0.00001326,-0.00002904,-0.00
 000460,0.00000208,0.00001610,0.00000395,-0.00000291,0.00003276,0.00001
 777,-0.00001675,-0.00002733,-0.00000833,0.00000576,0.00002516,-0.00012
 599,-0.00016325,0.00021012,0.00006448,0.00009748,-0.00006821,0.0000194
 7,-0.00006614,0.00003333,0.00001049,0.00000736,-0.00001945,0.00000356,
 0.00000551,0.00000415,-0.00001745,0.00001084,-0.00003102,-0.00000766,-
 0.00000590,0.00000940,0.00015219,0.00012246,-0.00014567,-0.00001068,-0
 .00000364,-0.00000948,0.00001510,0.00004374,-0.00027861,-0.00002187,-0
 .00019516,-0.00013788,-0.00020574,-0.00015080,-0.00008267,0.00026967,0
 .00031401,0.00030935,-0.00003080,0.00000998,0.00000256,-0.00004788,0.0
 0000855,-0.00003758,-0.00003959,-0.00001879,0.00002102,0.00000847,0.00
 003690,0.00001411,0.00000685,-0.00000146,0.00000287,0.00005197,-0.0000
 9235,0.00002029,-0.00000575,-0.00001943,-0.00005613,0.00073070,-0.0001
 3967,0.00007606,-0.00004269,0.00058845,-0.00059405,0.00015172,0.000116
 31,0.00028068,-0.00047064,0.00046478,-0.00003243,-0.00003555,-0.000107
 04,0.00020955,0.00001752,0.00010433,0.00000514,0.00045534,-0.00034384,
 0.00001289,-0.00005347,-0.00005416,-0.00000045,-0.00028437,-0.00026161
 ,0.00013596,0.00012130,0.00000704,-0.00007601,0.00006111,0.00010114,0.
 00007665,0.00010137,0.00006057,-0.00002299,-0.00001228,0.00008415,-0.0
 0000802,-0.00016300,-0.00001239,0.00005065,0.00003059,-0.00006280,0.00
 003901,-0.00005468,-0.00001334,-0.00010848,0.00003053,0.00003205,0.000
 07655,0.00013589,0.00004718,0.00016722,-0.00007675,0.00011816,0.000123
 23,0.00000695,-0.00001397,0.00003489,-0.00013132,0.00003198,-0.0001990
 7,-0.00004707,0.00002089,0.00002504,-0.00547350,-0.00891563,-0.0341998
 0,-0.05362485,-0.00510086,-0.02960742,-0.00606430,0.00176180,-0.000925
 59,0.00133586,0.00014856,-0.00069008,0.00033026,0.00039321,0.00652942,
 0.00323666,0.00577194,0.02039440,0.05888281,0.,0.,0.,0.,0.,0.,-0.00000
 129,-0.00000165,0.00000247,-0.00000088,-0.00000069,0.00000200,0.,0.,0.
 ,0.00017042,0.00000377,-0.00004824,-0.00012301,-0.00001092,-0.00001104
 ,0.,0.,0.,-0.00000511,0.00000260,-0.00000289,0.00000701,-0.00000386,0.
 00000491,-0.00000290,-0.00000062,0.00001859,0.00000408,-0.00000668,-0.
 00001879,-0.00000317,0.00000085,0.00001065,0.00001101,-0.00000929,0.00
 001734,0.00000592,-0.00000707,-0.00001610,-0.00000360,0.00000198,0.000
 01274,-0.00009202,-0.00004611,0.00008739,0.00003871,0.00005267,-0.0000
 3381,-0.00000139,-0.00002928,0.00001668,0.00000607,0.00000596,-0.00001
 064,0.00000239,0.00000282,0.00000223,-0.00001495,0.00000858,-0.0000128
 8,-0.00000415,-0.00000094,0.00000510,-0.00001116,0.00004084,-0.0000116
 7,-0.00000164,0.00000190,0.00000064,-0.00000658,0.00003070,-0.00015729
 ,-0.00008267,-0.00006678,-0.00006761,-0.00007439,-0.00007079,-0.000027
 97,0.00016010,0.00012703,0.00015003,-0.00000285,-0.00001674,-0.0000099
 5,-0.00001835,0.00000540,-0.00001779,-0.00001267,-0.00000658,0.0000078
 9,-0.00000535,0.00000284,0.00000137,0.00001527,0.00000425,0.00000325,-
 0.00001256,-0.00003355,0.00003110,-0.00000707,-0.00001472,-0.00003601,
 -0.00057941,0.00047722,0.00067145,0.00027481,0.00006735,0.00043497,0.0
 0020460,-0.00140837,-0.00015117,0.00037294,0.00023590,-0.00025908,-0.0
 0015962,0.00004009,-0.00015026,-0.00002221,-0.00002893,-0.00002479,-0.
 00026143,-0.00265305,0.00001386,-0.00018425,0.00015806,-0.00003387,-0.
 00019037,-0.00039820,0.00013443,0.00000298,0.00005838,-0.00012037,0.00
 006199,0.00015559,0.00021179,0.00014447,0.00001223,0.00003795,-0.00000
 350,0.00000864,-0.00002233,-0.00007759,-0.00003500,-0.00008769,0.00001
 320,-0.00002478,-0.00000960,0.00036169,0.00004163,-0.00005285,-0.00000
 232,0.00002089,0.00000939,-0.00002847,-0.00002208,-0.00002479,-0.00005
 420,-0.00002383,-0.00002142,-0.00000660,-0.00002245,0.00000866,-0.0000
 3527,0.00003824,-0.00008796,0.00002714,-0.00000863,-0.00001228,0.00137
 483,0.00019904,0.00669215,-0.00639924,-0.05584558,-0.04407573,0.000741
 61,0.00105002,0.00006399,-0.00056835,0.00000221,-0.00065744,-0.0043977
 2,-0.00407878,-0.03163308,0.00377900,0.00273663,0.01830948,0.00488103,
 0.05997462,0.,0.,0.,0.,0.,0.,0.00000402,0.00000915,0.00000081,-0.00000
 346,-0.00000996,-0.00000201,0.,0.,0.,0.00001209,0.00001593,-0.00002361
 ,-0.00002965,-0.00001223,-0.00000252,0.,0.,0.,0.00001381,-0.00000465,0
 .00001030,-0.00001295,0.00000585,-0.00000644,-0.00000950,-0.00002157,-
 0.00001386,0.00000465,0.00000769,-0.00000304,-0.00000078,-0.00000183,-
 0.00000072,-0.00003381,0.00000887,-0.00000241,0.00000613,-0.00000076,0
 .00001407,-0.00000255,-0.00000101,-0.00000605,-0.00003713,-0.00001931,
 0.00001397,-0.00000515,0.00004190,-0.00001544,0.00000568,-0.00001791,0
 .00000347,-0.00000054,0.00001175,0.00001405,0.00000145,0.00000224,0.00
 000239,0.00001568,-0.00001199,-0.00000655,0.00000387,0.00000180,-0.000
 00371,0.00002138,-0.00000786,-0.00000765,-0.00000248,-0.00000242,0.000
 00207,0.00006692,0.00002749,0.00004594,-0.00000752,0.00007415,0.000035
 03,0.00006732,0.00004474,0.00001221,-0.00008657,-0.00011489,-0.0000808
 1,0.00000846,-0.00000526,-0.00000045,0.00002441,-0.00000661,0.00001197
 ,0.00001459,0.00000561,-0.00000403,-0.00000451,-0.00001508,-0.00000650
 ,0.00000047,0.,0.00000108,-0.00001852,0.00003213,0.00000067,-0.0000081
 4,0.00001010,0.00000945,0.00006922,-0.00004059,-0.00004395,-0.00074416
 ,0.00020596,-0.00034495,-0.00089066,-0.00095690,-0.00000125,-0.0000222
 2,-0.00017902,0.00026341,0.00011241,0.00005845,0.00008261,0.00025639,-
 0.00036063,-0.00007414,0.00102929,-0.00047801,0.00045042,0.00028039,-0
 .00041065,-0.00006254,-0.00003371,0.00008984,-0.00003724,0.00007445,-0
 .00004032,0.00002386,-0.00002115,-0.00007788,-0.00016594,-0.00007013,0
 .00003808,-0.00001656,-0.00000341,0.00002083,0.00000285,0.00001226,0.0
 0001319,0.00009156,-0.00000789,0.00001828,0.00002869,-0.00014960,0.000
 06327,0.00001139,0.00001118,0.00000921,-0.00000912,0.00006852,0.000001
 95,0.00004846,-0.00001440,0.00003460,0.00001265,0.00000713,0.00000813,
 -0.00000130,0.00003049,-0.00002123,0.00004880,-0.00002726,0.00001059,0
 .00001505,-0.00293474,-0.00174924,-0.00614898,-0.03349522,-0.04476474,
 -0.31914192,-0.00071414,0.00064696,0.00086006,0.00055406,0.00048775,0.
 00010445,-0.00011228,-0.00039064,-0.00353124,-0.00198573,-0.00329586,-
 0.01176375,0.03874013,0.05100540,0.33967923,0.,0.,0.,0.,0.,0.,0.000049
 65,0.00009158,-0.00002126,-0.00003020,-0.00009946,-0.00002776,0.,0.,0.
 ,-0.00046052,-0.00002293,0.00025570,0.00041550,0.00008883,-0.00011575,
 0.,0.,0.,0.00018043,-0.00005394,0.00009236,-0.00015992,0.00006394,-0.0
 0009184,-0.00003640,-0.00026258,-0.00028894,0.00003818,0.00015132,0.00
 005691,0.00000327,-0.00003494,-0.00005890,-0.00028690,0.00001922,-0.00
 016743,-0.00005058,0.00008795,0.00027112,0.00002061,-0.00004882,-0.000
 18738,0.00038683,0.00024124,-0.00062897,-0.00033798,0.00012155,0.00010
 395,0.00010639,-0.00007851,-0.00002899,-0.00006378,0.00007729,0.000240
 25,-0.00001603,0.00000476,-0.00000078,0.00020265,-0.00015861,0.0000983
 9,0.00007655,0.00008402,-0.00009330,-0.00010406,-0.00039067,0.00015494
 ,0.00007711,0.00000790,0.00008356,0.00042528,0.00020659,0.00170613,-0.
 00347764,0.00101341,0.00021284,0.00101710,0.00073251,-0.00043635,-0.00
 201138,-0.00487889,-0.00270614,0.00012429,-0.00003723,-0.00039411,0.00
 051805,-0.00079690,0.00052478,0.00032075,0.00020595,-0.00016778,0.0001
 0570,-0.00020487,0.00007362,0.00014707,0.00013041,0.00003253,-0.000397
 32,-0.00046433,0.00028484,-0.00024907,0.00008711,0.00003618,0.00061014
 ,-0.00016767,0.00030406,0.00100229,-0.00114788,0.00022673,0.00006056,0
 .00033650,-0.00015321,-0.00199311,0.00017595,-0.00006281,-0.00005620,-
 0.00060104,0.00053420,-0.00001420,0.00021966,-0.00001960,0.00032925,0.
 00019867,-0.00018324,0.00013854,-0.00009670,0.00011417,0.00010508,-0.0
 0008001,0.00006244,-0.00006315,0.00004962,-0.00001418,0.00015950,0.000
 14297,-0.00008808,0.00001033,-0.00009596,0.00002357,0.00003326,-0.0000
 1550,0.00001682,-0.00001366,-0.00005360,-0.00007901,0.00005580,-0.0000
 2538,0.00008852,-0.00215398,0.00018750,-0.00002422,-0.00026086,0.00043
 212,-0.00204257,0.00013609,0.00001516,-0.00004737,0.00054108,0.0001775
 3,-0.00032202,-0.00010738,0.00032401,-0.00041529,-0.00081871,0.0004329
 4,0.00048198,0.00001415,-0.00008141,0.00016348,-0.00050639,0.00047052,
 0.00139101,-0.00084018,-0.00087887,0.00020429,-0.00004392,-0.00037230,
 0.00035751,-0.00178862,-0.00016488,0.00013019,0.00014562,-0.00002192,-
 0.00025531,0.00018674,-0.00008323,0.00101391,0.00114051,0.00084088,0.0
 0002205,0.00730213,0.,0.,0.,0.,0.,0.,0.00006565,0.00012592,-0.00001681
 ,-0.00003358,-0.00011199,-0.00003935,0.,0.,0.,-0.00021557,-0.00020114,
 0.00021811,0.00027286,0.00016699,-0.00009307,0.,0.,0.,0.00011268,-0.00
 004586,0.00014496,-0.00019998,0.00010455,-0.00010458,-0.00013265,-0.00
 021733,-0.00039364,0.00003760,0.00017249,0.00013362,0.00000743,-0.0000
 3884,-0.00010527,-0.00064697,0.00036962,-0.00017454,0.00010140,0.00001
 571,0.00034563,-0.00001141,-0.00000310,-0.00013730,0.00042298,0.000574
 86,-0.00094185,-0.00032585,-0.00035657,0.00023937,-0.00012360,0.000351
 28,-0.00022374,-0.00007506,0.00007290,0.00027755,0.00000676,-0.0000171
 3,0.00000906,0.00041877,-0.00025992,-0.00009353,0.00008664,-0.00005484
 ,-0.00008967,-0.00007758,-0.00064456,0.00040281,-0.00007047,-0.0000543
 0,-0.00003502,0.00118402,-0.00037534,0.00248352,-0.00020573,0.00124358
 ,0.00124116,0.00229304,-0.00192428,-0.00083663,-0.00543014,-0.00401239
 ,-0.00348391,0.00069840,-0.00148854,0.00038196,0.00003593,-0.00044176,
 -0.00015661,0.00030018,-0.00000078,-0.00009220,-0.00046621,-0.00058924
 ,-0.00033160,-0.00036281,-0.00025289,-0.00004505,-0.00114659,0.0001385
 6,-0.00077726,-0.00037729,0.00003818,0.00078851,-0.00024832,-0.0001443
 5,0.00039308,-0.00025671,-0.00454411,0.00185126,0.00062170,-0.00000473
 ,0.00087038,0.00006931,-0.00056595,-0.00073040,-0.00007383,-0.00053259
 ,0.00075299,0.00018813,0.00035690,-0.00005471,-0.00014180,0.00002611,-
 0.00016884,-0.00057766,-0.00033641,0.00006240,0.00037897,0.00085284,0.
 00009756,-0.00019588,-0.00018964,0.00013401,0.00001177,-0.00010327,-0.
 00005065,-0.00001121,0.00013200,-0.00013878,-0.00001334,0.00003113,0.0
 0013743,-0.00002375,-0.00000492,0.00001417,0.00003065,-0.00001919,-0.0
 0001498,-0.00024910,0.00007615,-0.00016762,0.00124646,0.00022391,0.001
 53891,-0.00001118,-0.00027771,0.00002112,-0.00011890,-0.00000690,0.000
 07391,0.00036343,-0.00040447,0.00063518,-0.00011921,-0.00188712,-0.000
 02795,-0.00042779,0.00053249,-0.00028703,0.00018021,0.00012878,0.00141
 327,-0.00023923,0.00020598,0.00007275,-0.00036943,-0.00015144,0.000294
 05,-0.00032971,-0.00171781,0.00066937,-0.00027613,0.00022955,0.0005311
 7,-0.00001109,0.00010028,-0.00003418,0.00049101,-0.00063826,0.00003591
 ,0.00398160,0.01543256,0.,0.,0.,0.,0.,0.,0.00001990,0.00004518,0.00001
 241,-0.00003226,-0.00007435,0.00000455,0.,0.,0.,-0.00007682,0.00010247
 ,0.00000241,-0.00014142,-0.00014076,-0.00004249,0.,0.,0.,0.00004621,0.
 00000074,0.00004663,-0.00004583,0.00001372,-0.00000340,-0.00009298,-0.
 00017211,0.00003058,0.00009329,0.00002619,-0.00020875,-0.00004269,-0.0
 0001540,0.00009038,-0.00026416,0.00000812,0.00014078,0.00012045,-0.000
 06846,0.00003566,-0.00004753,0.00000895,0.00007219,-0.00045909,-0.0004
 9251,0.00032080,0.00010788,0.00040381,-0.00019161,0.00005652,-0.000256
 44,0.00008951,0.00002864,0.00011754,0.00004787,0.00002140,0.00003358,0
 .00003127,0.00003092,-0.00005925,-0.00026836,0.00001492,-0.00001082,-0
 .00001969,0.00027131,0.00026210,-0.00025885,0.00007643,0.00004705,0.00
 005501,0.00060619,0.00051982,-0.00051834,-0.00042628,0.00015611,-0.001
 95502,-0.00049232,-0.00083621,-0.00189271,-0.00070486,-0.00095103,0.00
 146843,-0.00051069,0.00011730,0.00047255,0.00041769,-0.00025502,-0.000
 06083,-0.00047661,-0.00035296,0.00033360,0.00018499,0.00020856,0.00022
 856,-0.00008300,-0.00027810,0.00006676,0.00038383,-0.00062738,-0.00055
 493,-0.00026021,0.00030059,0.00074930,0.00075680,0.00049081,-0.0005263
 0,-0.00020905,0.00226853,-0.00128341,-0.00015077,0.00005760,-0.0002761
 0,0.00021250,0.00062874,-0.00209353,0.00007504,0.00043893,-0.00029419,
 0.00006904,0.00027566,0.00006497,0.00002257,-0.00010618,-0.00015604,0.
 00027247,0.00009605,0.00005595,-0.00061149,0.00021982,0.00059955,0.000
 20666,0.00006225,-0.00010110,0.00005593,-0.00009439,-0.00006057,0.0000
 5231,0.00024372,-0.00020948,0.00000936,0.00008337,-0.00008136,-0.00008
 089,0.00007556,0.00015562,-0.00002945,-0.00000418,0.00006427,0.0001915
 8,0.00020231,0.00040837,-0.00154289,0.00023429,-0.00148153,0.00010867,
 0.00005794,0.00019069,0.00012594,0.00020830,-0.00025124,-0.00034622,0.
 00051547,-0.00044291,0.00027731,0.00049718,-0.00126534,-0.00007062,0.0
 0045294,-0.00007563,0.00107020,0.00022801,-0.00657410,-0.00051791,0.00
 065159,-0.00114433,0.00083945,0.00081537,-0.00081787,0.00108757,0.0002
 4746,-0.00203078,-0.00014501,-0.00002873,0.00008879,0.00047835,0.00014
 623,-0.00016515,-0.00027671,-0.00009955,-0.00034877,0.00021758,-0.0060
 5991,0.01971205\\0.,0.,0.,0.,0.,0.,0.,0.,0.,0.,0.,0.,0.,0.,0.,0.000000
 02,0.,0.,-0.00000001,0.,0.,0.,0.,0.,0.,0.,0.,0.,0.,0.,0.,-0.00000002,0
 .00000001,0.,0.00000001,0.,0.,0.,0.,0.,-0.00000002,-0.00000003,0.,0.,0
 .,0.,0.,0.,0.,0.,0.,0.,0.,0.,0.,0.,0.,0.,0.00000002,0.00000001,0.,0.,0
 .,0.,0.,0.,0.,0.,0.,0.,0.,0.,0.,0.,0.,0.,0.00000002,0.,0.,0.,0.,0.,0.,
 0.,-0.00000002,0.00000001,0.00000001,0.,0.,0.,0.,0.,0.,0.,0.,0.,0.,-0.
 00000001,0.,0.,0.,0.,0.,0.,0.,0.,0.,0.,0.,0.,0.,0.,0.,0.,0.,0.,0.,0.,0
 .,0.,0.,0.,0.,0.,0.,0.,0.,0.,0.,0.,0.,0.,-0.00000001,0.,0.,0.00000001,
 0.,0.,0.,0.,0.,0.,0.,0.,0.,0.,0.,-0.00000001,0.00000001,0.,0.,0.,0.,0.
 ,0.,0.,0.,0.,0.,0.,0.,0.,0.,0.,0.,0.,0.,0.,0.,0.,0.,0.,0.,0.,0.,0.,0.,
 0.,0.,0.,0.,0.,0.,0.,0.,0.,0.,0.,0.,0.,0.,0.,0.,0.,0.,0.,0.,0.\\\@


 In the race for quality, there is no finish line.
                               -- David T. Kearns
 Job cpu time:       1 days 20 hours 38 minutes  4.3 seconds.
 Elapsed time:       0 days  0 hours 43 minutes  5.4 seconds.
 File lengths (MBytes):  RWF=   7452 Int=      0 D2E=      0 Chk=     58 Scr=      2
 Normal termination of Gaussian 16 at Wed Mar  8 14:17:42 2023.
