 Entering Gaussian System, Link 0=g16
 Input=4_test_opt_freq_from_IRC.com
 Output=4_test_opt_freq_from_IRC.log
 Initial command:
 /opt/ohpc/pub/apps/gaussian/avx2/g16/l1.exe "/scratch/g16-tmp/Gau-1859331.inp" -scrdir="/scratch/g16-tmp/"
 Entering Link 1 = /opt/ohpc/pub/apps/gaussian/avx2/g16/l1.exe PID=   1859332.
  
 Copyright (c) 1988-2017, Gaussian, Inc.  All Rights Reserved.
  
 This is part of the Gaussian(R) 16 program.  It is based on
 the Gaussian(R) 09 system (copyright 2009, Gaussian, Inc.),
 the Gaussian(R) 03 system (copyright 2003, Gaussian, Inc.),
 the Gaussian(R) 98 system (copyright 1998, Gaussian, Inc.),
 the Gaussian(R) 94 system (copyright 1995, Gaussian, Inc.),
 the Gaussian 92(TM) system (copyright 1992, Gaussian, Inc.),
 the Gaussian 90(TM) system (copyright 1990, Gaussian, Inc.),
 the Gaussian 88(TM) system (copyright 1988, Gaussian, Inc.),
 the Gaussian 86(TM) system (copyright 1986, Carnegie Mellon
 University), and the Gaussian 82(TM) system (copyright 1983,
 Carnegie Mellon University). Gaussian is a federally registered
 trademark of Gaussian, Inc.
  
 This software contains proprietary and confidential information,
 including trade secrets, belonging to Gaussian, Inc.
  
 This software is provided under written license and may be
 used, copied, transmitted, or stored only in accord with that
 written license.
  
 The following legend is applicable only to US Government
 contracts under FAR:
  
                    RESTRICTED RIGHTS LEGEND
  
 Use, reproduction and disclosure by the US Government is
 subject to restrictions as set forth in subparagraphs (a)
 and (c) of the Commercial Computer Software - Restricted
 Rights clause in FAR 52.227-19.
  
 Gaussian, Inc.
 340 Quinnipiac St., Bldg. 40, Wallingford CT 06492
  
  
 ---------------------------------------------------------------
 Warning -- This program may not be used in any manner that
 competes with the business of Gaussian, Inc. or will provide
 assistance to any competitor of Gaussian, Inc.  The licensee
 of this program is prohibited from giving any competitor of
 Gaussian, Inc. access to this program.  By using this program,
 the user acknowledges that Gaussian, Inc. is engaged in the
 business of creating and licensing software in the field of
 computational chemistry and represents and warrants to the
 licensee that it is not a competitor of Gaussian, Inc. and that
 it will not use this program in any manner prohibited above.
 ---------------------------------------------------------------
  

 Cite this work as:
 Gaussian 16, Revision B.01,
 M. J. Frisch, G. W. Trucks, H. B. Schlegel, G. E. Scuseria, 
 M. A. Robb, J. R. Cheeseman, G. Scalmani, V. Barone, 
 G. A. Petersson, H. Nakatsuji, X. Li, M. Caricato, A. V. Marenich, 
 J. Bloino, B. G. Janesko, R. Gomperts, B. Mennucci, H. P. Hratchian, 
 J. V. Ortiz, A. F. Izmaylov, J. L. Sonnenberg, D. Williams-Young, 
 F. Ding, F. Lipparini, F. Egidi, J. Goings, B. Peng, A. Petrone, 
 T. Henderson, D. Ranasinghe, V. G. Zakrzewski, J. Gao, N. Rega, 
 G. Zheng, W. Liang, M. Hada, M. Ehara, K. Toyota, R. Fukuda, 
 J. Hasegawa, M. Ishida, T. Nakajima, Y. Honda, O. Kitao, H. Nakai, 
 T. Vreven, K. Throssell, J. A. Montgomery, Jr., J. E. Peralta, 
 F. Ogliaro, M. J. Bearpark, J. J. Heyd, E. N. Brothers, K. N. Kudin, 
 V. N. Staroverov, T. A. Keith, R. Kobayashi, J. Normand, 
 K. Raghavachari, A. P. Rendell, J. C. Burant, S. S. Iyengar, 
 J. Tomasi, M. Cossi, J. M. Millam, M. Klene, C. Adamo, R. Cammi, 
 J. W. Ochterski, R. L. Martin, K. Morokuma, O. Farkas, 
 J. B. Foresman, and D. J. Fox, Gaussian, Inc., Wallingford CT, 2016.
 
 ******************************************
 Gaussian 16:  ES64L-G16RevB.01 20-Dec-2017
                 8-Mar-2023 
 ******************************************
 %nprocshared=64
 Will use up to   64 processors via shared memory.
 %mem=64GB
 %chk=4_test_opt_freq_from_IRC.chk
 ----------------------------------------------------------------------
 # opt=(calcall,tight,cartesian) freq ucam-b3lyp/gen nosymm scf=(qc,max
 cycle=1024,vshift=100) pseudo=read
 ----------------------------------------------------------------------
 1/7=10,10=4,18=10,26=3,38=1/1,3;
 2/12=2,15=1,17=6,18=5,29=2,40=1/2;
 3/5=7,11=2,16=1,17=8,25=1,30=1,71=2,74=-40,116=2,140=1/1,2,3;
 4//1;
 5/5=2,7=1024,8=3,10=100,38=5/8;
 8/6=4,10=90,11=11/1;
 11/6=1,8=1,9=11,15=111,16=1,31=1/1,2,10;
 10/6=1,31=1/2;
 6/7=2,8=2,9=2,10=2,18=1,28=1/1;
 7/7=1,10=1,25=1,30=1/1,2,3,16;
 1/7=10,10=4,18=10,26=3/3(3);
 2/15=1,29=1/2;
 7/7=1,8=1,9=1,25=1,30=1,44=-1/16;
 99/12=1/99;
 2/15=1,29=1/2;
 3/5=7,6=1,11=2,16=1,17=8,25=1,30=1,71=2,74=-40,82=7,116=2,140=1/1,2,3;
 4/5=5,16=3,69=1/1;
 5/5=2,7=1024,8=3,10=100,38=5/8;
 8/6=4,10=90,11=11/1;
 11/6=1,8=1,9=11,15=111,16=1,31=1/1,2,10;
 10/6=1,31=1/2;
 7/7=1,10=1,25=1,30=1/1,2,3,16;
 1/7=10,10=4,18=10,26=3/3(-8);
 2/15=1,29=1/2;
 6/7=2,8=2,9=2,10=2,18=1,19=2,28=1/1;
 7/7=1,8=1,9=1,25=1,30=1,44=-1/16;
 99/12=1/99;
 ------------------------
 4_test_opt_freq_from_IRC
 ------------------------
 Symbolic Z-matrix:
 Charge =  0 Multiplicity = 4
 Li                   -1   -1.57353  -6.19113  -3.27725 
 N                    -1   -1.24314  -4.75916  -2.09463 
 C                    0    -1.91701  -5.1423   -0.97123 
 Cl                   0    -2.65285  -6.72073  -0.95941 
 N                    -1    1.34374   1.46761  -2.29587 
 C                    0     2.25707   0.4664   -2.23396 
 Cl                   0     3.84691   0.61398  -2.91522 
 N                    -1   -4.29384   0.88349   1.25132 
 C                    0    -4.51534   0.81845  -0.08116 
 Cl                   0    -5.94028   1.4659   -0.82255 
 N                    0    -1.18214  -3.10667  -0.58403 
 C                    0    -1.88863  -4.14241  -0.04326 
 Cl                   0    -2.57792  -4.09553   1.51996 
 N                    0    -2.55583  -0.16082   0.24486 
 C                    0    -3.46969   0.18442  -0.70526 
 Cl                   0    -3.24733  -0.18515  -2.37973 
 N                    0     0.45954  -0.30437  -1.19664 
 C                    0     1.73463  -0.61089  -1.56229 
 Cl                   0     2.48313  -2.11773  -1.18708 
 C                    0    -0.82389  -3.5196   -1.80039 
 H                    0    -0.24942  -2.90425  -2.47672 
 C                    0    -3.11817   0.28564   1.39677 
 H                    0    -2.63026   0.13766   2.35078 
 C                    0     0.28671   0.94866  -1.66674 
 H                    0    -0.65331   1.46952  -1.54383 
 Co                   0    -0.82456  -1.19714   0.16867 
 C                    0     1.07342  -0.44782   2.23691 
 C                    0     0.48751   0.74342   2.99981 
 O                    0    -0.01378  -1.20851   1.85312 
 C                    0     2.02722  -1.27503   3.09248 
 H                    0    -0.24367   1.27674   2.39595 
 H                    0     0.03997   0.43669   3.94402 
 H                    0     2.39239  -2.11853   2.5024 
 H                    0     1.48892  -1.6745    3.95753 
 H                    0     2.88271  -0.69102   3.4438 
 H                    0     1.63536  -0.04913   1.37095 
 N                    0     2.74483   4.41814  -0.16408 
 C                    0     2.72142   5.22246   1.12609 
 C                    0     4.02441   5.86543   1.58025 
 H                    0     2.33816   4.54556   1.89072 
 H                    0     1.97825   6.00751   0.97128 
 H                    0     3.83141   6.31493   2.55749 
 H                    0     4.84084   5.15612   1.70507 
 H                    0     4.35317   6.66695   0.91686 
 C                    0     3.6239    5.109    -1.18177 
 C                    0     3.66764   4.47206  -2.56047 
 H                    0     4.62512   5.14508  -0.75725 
 H                    0     3.25383   6.136    -1.24126 
 H                    0     4.35371   5.06545  -3.17026 
 H                    0     4.04152   3.44775  -2.54202 
 H                    0     2.69966   4.46579  -3.0612 
 C                    0     1.3222    4.37256  -0.72547 
 C                    0     0.23902   3.94819   0.25093 
 H                    0     1.34723   3.66861  -1.55961 
 H                    0     1.12762   5.38101  -1.09983 
 H                    0    -0.70393   3.94846  -0.30113 
 H                    0     0.38464   2.93403   0.62251 
 H                    0     0.12023   4.62343   1.09924 
 C                    0     3.18174   2.97869   0.07185 
 C                    0     4.60269   2.7528    0.55168 
 H                    0     2.99876   2.46243  -0.86646 
 H                    0     2.49056   2.57708   0.81057 
 H                    0     4.76814   1.67329   0.52308 
 H                    0     5.36169   3.20808  -0.08853 
 H                    0     4.75592   3.06989   1.58392 
 Br                   0     1.8477    2.11894   3.50219 
 

 GradGradGradGradGradGradGradGradGradGradGradGradGradGradGradGradGradGrad
 Berny optimization.
 Initialization pass.
 No Z-matrix variables, so optimization will use Cartesian coordinates.
 Trust Radius=3.00D-01 FncErr=1.00D-07 GrdErr=1.00D-06 EigMax=2.50D+02 EigMin=1.00D-04
 Number of steps in this run=    208 maximum allowed number of steps=    396.
 GradGradGradGradGradGradGradGradGradGradGradGradGradGradGradGradGradGrad

 Symmetry turned off by external request.
 Stoichiometry    C20H29BrCl6CoLiN7O(4)
 Framework group  C1[X(C20H29BrCl6CoLiN7O)]
 Deg. of freedom   192
 Full point group                 C1      NOp   1
                          Input orientation:                          
 ---------------------------------------------------------------------
 Center     Atomic      Atomic             Coordinates (Angstroms)
 Number     Number       Type             X           Y           Z
 ---------------------------------------------------------------------
      1          3           0       -1.573534   -6.191132   -3.277248
      2          7           0       -1.243135   -4.759164   -2.094630
      3          6           0       -1.917012   -5.142301   -0.971231
      4         17           0       -2.652848   -6.720729   -0.959407
      5          7           0        1.343736    1.467609   -2.295869
      6          6           0        2.257068    0.466404   -2.233960
      7         17           0        3.846906    0.613981   -2.915218
      8          7           0       -4.293838    0.883493    1.251322
      9          6           0       -4.515345    0.818448   -0.081163
     10         17           0       -5.940277    1.465902   -0.822552
     11          7           0       -1.182138   -3.106672   -0.584034
     12          6           0       -1.888628   -4.142408   -0.043259
     13         17           0       -2.577922   -4.095530    1.519959
     14          7           0       -2.555826   -0.160821    0.244860
     15          6           0       -3.469686    0.184415   -0.705258
     16         17           0       -3.247333   -0.185145   -2.379727
     17          7           0        0.459543   -0.304372   -1.196639
     18          6           0        1.734633   -0.610894   -1.562293
     19         17           0        2.483128   -2.117728   -1.187077
     20          6           0       -0.823886   -3.519595   -1.800393
     21          1           0       -0.249419   -2.904254   -2.476719
     22          6           0       -3.118169    0.285637    1.396770
     23          1           0       -2.630264    0.137663    2.350781
     24          6           0        0.286712    0.948661   -1.666737
     25          1           0       -0.653305    1.469518   -1.543825
     26         27           0       -0.824561   -1.197144    0.168672
     27          6           0        1.073423   -0.447824    2.236909
     28          6           0        0.487509    0.743419    2.999811
     29          8           0       -0.013783   -1.208505    1.853115
     30          6           0        2.027218   -1.275028    3.092480
     31          1           0       -0.243670    1.276743    2.395945
     32          1           0        0.039966    0.436687    3.944024
     33          1           0        2.392388   -2.118527    2.502404
     34          1           0        1.488917   -1.674504    3.957526
     35          1           0        2.882711   -0.691022    3.443796
     36          1           0        1.635359   -0.049128    1.370947
     37          7           0        2.744826    4.418139   -0.164077
     38          6           0        2.721421    5.222462    1.126085
     39          6           0        4.024408    5.865428    1.580245
     40          1           0        2.338159    4.545556    1.890720
     41          1           0        1.978247    6.007509    0.971283
     42          1           0        3.831412    6.314928    2.557492
     43          1           0        4.840840    5.156118    1.705073
     44          1           0        4.353172    6.666946    0.916855
     45          6           0        3.623900    5.108997   -1.181769
     46          6           0        3.667641    4.472064   -2.560467
     47          1           0        4.625118    5.145078   -0.757254
     48          1           0        3.253834    6.136002   -1.241262
     49          1           0        4.353712    5.065446   -3.170260
     50          1           0        4.041518    3.447754   -2.542015
     51          1           0        2.699659    4.465792   -3.061200
     52          6           0        1.322198    4.372559   -0.725472
     53          6           0        0.239024    3.948190    0.250932
     54          1           0        1.347233    3.668607   -1.559606
     55          1           0        1.127621    5.381013   -1.099830
     56          1           0       -0.703926    3.948458   -0.301131
     57          1           0        0.384644    2.934026    0.622505
     58          1           0        0.120227    4.623429    1.099236
     59          6           0        3.181741    2.978689    0.071854
     60          6           0        4.602688    2.752801    0.551682
     61          1           0        2.998761    2.462433   -0.866460
     62          1           0        2.490564    2.577082    0.810573
     63          1           0        4.768137    1.673291    0.523081
     64          1           0        5.361685    3.208075   -0.088532
     65          1           0        4.755917    3.069886    1.583922
     66         35           0        1.847704    2.118940    3.502191
 ---------------------------------------------------------------------
 Rotational constants (GHZ):           0.0853024           0.0421042           0.0392590
 General basis read from cards:  (5D, 7F)
 ======================================================================================================
                                       Pseudopotential Parameters
 ======================================================================================================
  Center     Atomic      Valence      Angular      Power
  Number     Number     Electrons     Momentum     of R      Exponent        Coefficient   SO-Coeffient
 ======================================================================================================
    1          3
                                   No pseudopotential on this center.
    2          7
                                   No pseudopotential on this center.
    3          6
                                   No pseudopotential on this center.
    4         17
                                   No pseudopotential on this center.
    5          7
                                   No pseudopotential on this center.
    6          6
                                   No pseudopotential on this center.
    7         17
                                   No pseudopotential on this center.
    8          7
                                   No pseudopotential on this center.
    9          6
                                   No pseudopotential on this center.
   10         17
                                   No pseudopotential on this center.
   11          7
                                   No pseudopotential on this center.
   12          6
                                   No pseudopotential on this center.
   13         17
                                   No pseudopotential on this center.
   14          7
                                   No pseudopotential on this center.
   15          6
                                   No pseudopotential on this center.
   16         17
                                   No pseudopotential on this center.
   17          7
                                   No pseudopotential on this center.
   18          6
                                   No pseudopotential on this center.
   19         17
                                   No pseudopotential on this center.
   20          6
                                   No pseudopotential on this center.
   21          1
                                   No pseudopotential on this center.
   22          6
                                   No pseudopotential on this center.
   23          1
                                   No pseudopotential on this center.
   24          6
                                   No pseudopotential on this center.
   25          1
                                   No pseudopotential on this center.
   26         27           17
                                      D and up 
                                                     1      434.1076104      -10.00000000    0.00000000
                                                     2       78.8402758      -66.72402760    0.00000000
                                                     2       19.6037749      -11.71922430    0.00000000
                                      S - D
                                                     0      151.2307582        3.00000000    0.00000000
                                                     1      169.6790026       20.15531100    0.00000000
                                                     2       64.9909423      413.37622440    0.00000000
                                                     2       12.5076287      133.87277050    0.00000000
                                      P - D
                                                     0       92.7319924        5.00000000    0.00000000
                                                     1      121.1910183        6.18923530    0.00000000
                                                     2       48.6265909      326.32159190    0.00000000
                                                     2       11.9966971       73.87889700    0.00000000
   27          6
                                   No pseudopotential on this center.
   28          6
                                   No pseudopotential on this center.
   29          8
                                   No pseudopotential on this center.
   30          6
                                   No pseudopotential on this center.
   31          1
                                   No pseudopotential on this center.
   32          1
                                   No pseudopotential on this center.
   33          1
                                   No pseudopotential on this center.
   34          1
                                   No pseudopotential on this center.
   35          1
                                   No pseudopotential on this center.
   36          1
                                   No pseudopotential on this center.
   37          7
                                   No pseudopotential on this center.
   38          6
                                   No pseudopotential on this center.
   39          6
                                   No pseudopotential on this center.
   40          1
                                   No pseudopotential on this center.
   41          1
                                   No pseudopotential on this center.
   42          1
                                   No pseudopotential on this center.
   43          1
                                   No pseudopotential on this center.
   44          1
                                   No pseudopotential on this center.
   45          6
                                   No pseudopotential on this center.
   46          6
                                   No pseudopotential on this center.
   47          1
                                   No pseudopotential on this center.
   48          1
                                   No pseudopotential on this center.
   49          1
                                   No pseudopotential on this center.
   50          1
                                   No pseudopotential on this center.
   51          1
                                   No pseudopotential on this center.
   52          6
                                   No pseudopotential on this center.
   53          6
                                   No pseudopotential on this center.
   54          1
                                   No pseudopotential on this center.
   55          1
                                   No pseudopotential on this center.
   56          1
                                   No pseudopotential on this center.
   57          1
                                   No pseudopotential on this center.
   58          1
                                   No pseudopotential on this center.
   59          6
                                   No pseudopotential on this center.
   60          6
                                   No pseudopotential on this center.
   61          1
                                   No pseudopotential on this center.
   62          1
                                   No pseudopotential on this center.
   63          1
                                   No pseudopotential on this center.
   64          1
                                   No pseudopotential on this center.
   65          1
                                   No pseudopotential on this center.
   66         35
                                   No pseudopotential on this center.
 ======================================================================================================
   709 basis functions,  1462 primitive gaussians,   748 cartesian basis functions
   183 alpha electrons      180 beta electrons
       nuclear repulsion energy      6782.9278650318 Hartrees.
 NAtoms=   66 NActive=   66 NUniq=   66 SFac= 1.00D+00 NAtFMM=   60 NAOKFM=T Big=T
 Integral buffers will be    131072 words long.
 Raffenetti 2 integral format.
 Two-electron integral symmetry is turned off.
 One-electron integrals computed using PRISM.
   1 Symmetry operations used in ECPInt.
 ECPInt:  NShTT=   32131 NPrTT=  189684 LenC2=   24036 LenP2D=   73782.
 LDataN:  DoStor=T MaxTD1= 4 Len=   56
 NBasis=   709 RedAO= T EigKep=  1.35D-03  NBF=   709
 NBsUse=   709 1.00D-06 EigRej= -1.00D+00 NBFU=   709
 ExpMin= 2.30D-02 ExpMax= 5.74D+05 ExpMxC= 5.74D+03 IAcc=3 IRadAn=         5 AccDes= 0.00D+00
 Harris functional with IExCor=20419 and IRadAn=       5 diagonalized for initial guess.
 HarFok:  IExCor=20419 AccDes= 0.00D+00 IRadAn=         5 IDoV= 1 UseB2=F ITyADJ=14
 ICtDFT=  3500011 ScaDFX=  1.000000  1.000000  1.000000  1.000000
 FoFCou: FMM=F IPFlag=           0 FMFlag=      100000 FMFlg1=        2001
         NFxFlg=           0 DoJE=T BraDBF=F KetDBF=T FulRan=T
         wScrn=  0.000000 ICntrl=       500 IOpCl=  0 I1Cent=   200000004 NGrid=           0
         NMat0=    1 NMatS0=      1 NMatT0=    0 NMatD0=    1 NMtDS0=    0 NMtDT0=    0
 Symmetry not used in FoFCou.
 Initial guess <Sx>= 0.0000 <Sy>= 0.0000 <Sz>= 1.5000 <S**2>= 3.7500 S= 1.5000
 Gradient too large for Newton-Raphson -- use scaled steepest descent instead.
 Gradient too large for Newton-Raphson -- use scaled steepest descent instead.
     Minimum is close to point  2 DX=  3.88D-02 DF= -7.13D-03 DXR=  8.84D-02 DFR=  7.87D-03 which will be used.
 Gradient too large for Newton-Raphson -- use scaled steepest descent instead.
     Minimum is close to point  2 DX=  3.14D-02 DF= -1.41D-03 DXR=  7.27D-02 DFR=  5.32D-03 which will be used.
 Gradient too large for Newton-Raphson -- use scaled steepest descent instead.
     Minimum is close to point  3 DX= -1.49D-02 DF= -7.42D-05 DXR=  2.54D-02 DFR=  6.19D-04 which will be used.
 Gradient too large for Newton-Raphson -- use scaled steepest descent instead.
     Accept linear search using points  1 and  2.
 Gradient too large for Newton-Raphson -- use scaled steepest descent instead.
     Accept linear search using points  4 and  5.
 Gradient too large for Newton-Raphson -- use scaled steepest descent instead.
     Accept linear search using points  1 and  2.
 Restarting incremental Fock formation.
 Gradient too large for Newton-Raphson -- use scaled steepest descent instead.
     Minimum is close to point  3 DX=  3.61D-02 DF= -1.18D-04 DXR=  6.74D-02 DFR=  4.56D-03 which will be used.
 Gradient too large for Newton-Raphson -- use scaled steepest descent instead.
     Accept linear search using points  4 and  5.
 Gradient too large for Newton-Raphson -- use scaled steepest descent instead.
     Accept linear search using points  1 and  2.
 Gradient too large for Newton-Raphson -- use scaled steepest descent instead.
     Minimum is close to point  2 DX=  5.66D-03 DF= -1.48D-06 DXR=  7.03D-03 DFR=  4.94D-05 which will be used.
 Gradient too large for Newton-Raphson -- use scaled steepest descent instead.
     Accept linear search using points  1 and  2.
 Gradient too large for Newton-Raphson -- use scaled steepest descent instead.
     Accept linear search using points  4 and  5.
 Gradient too large for Newton-Raphson -- use scaled steepest descent instead.
 Restarting incremental Fock formation.
     Minimum is close to point  3 DX= -7.59D-03 DF= -1.39D-05 DXR=  1.54D-02 DFR=  2.38D-04 which will be used.
 Gradient too large for Newton-Raphson -- use scaled steepest descent instead.
 Gradient too large for Newton-Raphson -- use scaled steepest descent instead.
     Accept linear search using points  1 and  2.
 Gradient too large for Newton-Raphson -- use scaled steepest descent instead.
     Accept linear search using points  3 and  4.
 Gradient too large for Newton-Raphson -- use scaled steepest descent instead.
     Accept linear search using points  1 and  2.
 Gradient too large for Newton-Raphson -- use scaled steepest descent instead.
     Accept linear search using points  2 and  3.
     Minimum is close to point  3 DX= -9.73D-02 DF= -6.47D-06 DXR=  5.72D-02 DFR=  2.81D-03 which will be used.
 Gradient too large for Newton-Raphson -- use scaled steepest descent instead.
     Accept linear search using points  1 and  2.
 Gradient too large for Newton-Raphson -- use scaled steepest descent instead.
 Gradient too large for Newton-Raphson -- use scaled steepest descent instead.
 Restarting incremental Fock formation.
     Minimum is close to point  3 DX= -9.34D-04 DF= -2.26D-09 DXR=  1.87D-03 DFR=  3.50D-06 which will be used.
 Gradient too large for Newton-Raphson -- use scaled steepest descent instead.
 Gradient too large for Newton-Raphson -- use scaled steepest descent instead.
     Minimum is close to point  3 DX=  9.70D-04 DF= -1.88D-09 DXR=  1.94D-03 DFR=  3.75D-06 which will be used.
 LinEq1:  Iter=  0 NonCon=     1 RMS=5.88D-05 Max=1.07D-02 NDo=     1
 AX will form     1 AO Fock derivatives at one time.
 LinEq1:  Iter=  1 NonCon=     1 RMS=3.61D-05 Max=3.18D-03 NDo=     1
 LinEq1:  Iter=  2 NonCon=     1 RMS=1.17D-05 Max=2.12D-03 NDo=     1
 LinEq1:  Iter=  3 NonCon=     1 RMS=7.84D-06 Max=9.48D-04 NDo=     1
 LinEq1:  Iter=  4 NonCon=     1 RMS=6.99D-06 Max=9.37D-04 NDo=     1
 LinEq1:  Iter=  5 NonCon=     1 RMS=3.26D-06 Max=3.35D-04 NDo=     1
 LinEq1:  Iter=  6 NonCon=     1 RMS=2.47D-06 Max=3.30D-04 NDo=     1
 LinEq1:  Iter=  7 NonCon=     1 RMS=1.43D-06 Max=1.52D-04 NDo=     1
 LinEq1:  Iter=  8 NonCon=     1 RMS=8.38D-07 Max=9.64D-05 NDo=     1
 LinEq1:  Iter=  9 NonCon=     1 RMS=4.77D-07 Max=3.56D-05 NDo=     1
 LinEq1:  Iter= 10 NonCon=     1 RMS=2.15D-07 Max=1.66D-05 NDo=     1
 LinEq1:  Iter= 11 NonCon=     1 RMS=1.45D-07 Max=1.25D-05 NDo=     1
 LinEq1:  Iter= 12 NonCon=     1 RMS=9.66D-08 Max=1.00D-05 NDo=     1
 LinEq1:  Iter= 13 NonCon=     1 RMS=5.48D-08 Max=5.04D-06 NDo=     1
 LinEq1:  Iter= 14 NonCon=     1 RMS=2.89D-08 Max=2.03D-06 NDo=     1
 LinEq1:  Iter= 15 NonCon=     1 RMS=2.03D-08 Max=1.59D-06 NDo=     1
 LinEq1:  Iter= 16 NonCon=     1 RMS=1.30D-08 Max=1.22D-06 NDo=     1
 LinEq1:  Iter= 17 NonCon=     1 RMS=9.29D-09 Max=9.17D-07 NDo=     1
 LinEq1:  Iter= 18 NonCon=     1 RMS=5.61D-09 Max=5.73D-07 NDo=     1
 LinEq1:  Iter= 19 NonCon=     1 RMS=3.28D-09 Max=4.42D-07 NDo=     1
 LinEq1:  Iter= 20 NonCon=     0 RMS=2.17D-09 Max=3.12D-07 NDo=     1
 Linear equations converged to 4.376D-08 4.376D-07 after    20 iterations.
     Accept linear search using points  1 and  2.
 LinEq1:  Iter=  0 NonCon=     1 RMS=1.61D-05 Max=2.62D-03 NDo=     1
 LinEq1:  Iter=  1 NonCon=     1 RMS=1.44D-05 Max=1.70D-03 NDo=     1
 LinEq1:  Iter=  2 NonCon=     1 RMS=9.24D-06 Max=1.29D-03 NDo=     1
 LinEq1:  Iter=  3 NonCon=     1 RMS=3.89D-06 Max=4.88D-04 NDo=     1
 LinEq1:  Iter=  4 NonCon=     1 RMS=3.72D-06 Max=4.37D-04 NDo=     1
 LinEq1:  Iter=  5 NonCon=     1 RMS=2.33D-06 Max=1.75D-04 NDo=     1
 LinEq1:  Iter=  6 NonCon=     1 RMS=1.52D-06 Max=1.68D-04 NDo=     1
 LinEq1:  Iter=  7 NonCon=     1 RMS=8.63D-07 Max=7.74D-05 NDo=     1
 LinEq1:  Iter=  8 NonCon=     1 RMS=5.54D-07 Max=9.21D-05 NDo=     1
 LinEq1:  Iter=  9 NonCon=     1 RMS=3.98D-07 Max=5.59D-05 NDo=     1
 LinEq1:  Iter= 10 NonCon=     1 RMS=2.19D-07 Max=1.67D-05 NDo=     1
 LinEq1:  Iter= 11 NonCon=     1 RMS=1.23D-07 Max=9.91D-06 NDo=     1
 LinEq1:  Iter= 12 NonCon=     1 RMS=8.14D-08 Max=6.18D-06 NDo=     1
 LinEq1:  Iter= 13 NonCon=     1 RMS=6.16D-08 Max=5.39D-06 NDo=     1
 LinEq1:  Iter= 14 NonCon=     1 RMS=3.86D-08 Max=2.63D-06 NDo=     1
 LinEq1:  Iter= 15 NonCon=     1 RMS=2.26D-08 Max=1.83D-06 NDo=     1
 LinEq1:  Iter= 16 NonCon=     1 RMS=1.03D-08 Max=9.05D-07 NDo=     1
 LinEq1:  Iter= 17 NonCon=     1 RMS=6.25D-09 Max=4.93D-07 NDo=     1
 LinEq1:  Iter= 18 NonCon=     0 RMS=4.30D-09 Max=3.11D-07 NDo=     1
 Linear equations converged to 4.150D-08 4.150D-07 after    18 iterations.
 Incorrect curvature in search direction -- initial direction reversed.
     Minimum is close to point  4 DX= -1.09D-01 DF= -2.08D-07 DXR=  3.40D-02 DFR=  3.17D-03 which will be used.
 Gradient too large for Newton-Raphson -- use scaled steepest descent instead.
     Minimum is close to point  2 DX=  2.32D-02 DF= -1.94D-07 DXR=  2.06D-02 DFR=  4.26D-04 which will be used.
 Gradient too large for Newton-Raphson -- use scaled steepest descent instead.
     Accept linear search using points  1 and  2.
 Gradient too large for Newton-Raphson -- use scaled steepest descent instead.
     Accept linear search using points  2 and  3.
     Minimum is close to point  3 DX= -1.48D-01 DF= -2.54D-06 DXR=  9.56D-02 DFR=  8.21D-03 which will be used.
 Gradient too large for Newton-Raphson -- use scaled steepest descent instead.
 Restarting incremental Fock formation.
     Accept linear search using points  1 and  2.
 Gradient too large for Newton-Raphson -- use scaled steepest descent instead.
     Accept linear search using points  2 and  3.
     Minimum is close to point  3 DX= -5.49D-02 DF= -2.93D-07 DXR=  2.97D-02 DFR=  8.85D-04 which will be used.
 Gradient too large for Newton-Raphson -- use scaled steepest descent instead.
     Accept linear search using points  1 and  2.
 Gradient too large for Newton-Raphson -- use scaled steepest descent instead.
     Accept linear search using points  2 and  3.
     Minimum is close to point  3 DX= -6.26D-02 DF= -3.85D-07 DXR=  3.23D-02 DFR=  1.04D-03 which will be used.
 Gradient too large for Newton-Raphson -- use scaled steepest descent instead.
     Accept linear search using points  1 and  2.
 Gradient too large for Newton-Raphson -- use scaled steepest descent instead.
     Accept linear search using points  2 and  3.
     Minimum is close to point  3 DX= -5.92D-02 DF= -4.18D-07 DXR=  2.90D-02 DFR=  9.74D-04 which will be used.
 Gradient too large for Newton-Raphson -- use scaled steepest descent instead.
     Minimum is close to point  3 DX=  4.12D-02 DF= -2.82D-06 DXR=  7.61D-02 DFR=  5.82D-03 which will be used.
 Gradient too large for Newton-Raphson -- use scaled steepest descent instead.
 Gradient too large for Newton-Raphson -- use scaled steepest descent instead.
 Restarting incremental Fock formation.
 Gradient too large for Newton-Raphson -- use scaled steepest descent instead.
     Accept linear search using points  3 and  4.
 Gradient too large for Newton-Raphson -- use scaled steepest descent instead.
 Gradient too large for Newton-Raphson -- use scaled steepest descent instead.
 Gradient too large for Newton-Raphson -- use scaled steepest descent instead.
 Gradient too large for Newton-Raphson -- use scaled steepest descent instead.
     Accept linear search using points  3 and  4.
     Minimum is close to point  4 DX= -4.70D-01 DF= -1.03D-05 DXR=  7.92D-02 DFR=  6.98D-03 which will be used.
 Gradient too large for Newton-Raphson -- use scaled steepest descent instead.
 Restarting incremental Fock formation.
 Gradient too large for Newton-Raphson -- use scaled steepest descent instead.
 Gradient too large for Newton-Raphson -- use scaled steepest descent instead.
 LinEq1:  Iter=  0 NonCon=     1 RMS=5.19D-05 Max=7.25D-03 NDo=     1
 LinEq1:  Iter=  1 NonCon=     1 RMS=2.25D-05 Max=1.72D-03 NDo=     1
 LinEq1:  Iter=  2 NonCon=     1 RMS=1.05D-05 Max=6.75D-04 NDo=     1
 LinEq1:  Iter=  3 NonCon=     1 RMS=2.88D-06 Max=2.10D-04 NDo=     1
 LinEq1:  Iter=  4 NonCon=     1 RMS=1.78D-06 Max=1.33D-04 NDo=     1
 LinEq1:  Iter=  5 NonCon=     1 RMS=1.39D-06 Max=1.33D-04 NDo=     1
 LinEq1:  Iter=  6 NonCon=     1 RMS=7.97D-07 Max=7.45D-05 NDo=     1
 LinEq1:  Iter=  7 NonCon=     1 RMS=5.98D-07 Max=5.37D-05 NDo=     1
 LinEq1:  Iter=  8 NonCon=     1 RMS=3.29D-07 Max=2.98D-05 NDo=     1
 LinEq1:  Iter=  9 NonCon=     1 RMS=1.76D-07 Max=1.71D-05 NDo=     1
 LinEq1:  Iter= 10 NonCon=     1 RMS=1.01D-07 Max=6.39D-06 NDo=     1
 LinEq1:  Iter= 11 NonCon=     1 RMS=5.94D-08 Max=6.74D-06 NDo=     1
 LinEq1:  Iter= 12 NonCon=     1 RMS=3.37D-08 Max=3.52D-06 NDo=     1
 LinEq1:  Iter= 13 NonCon=     1 RMS=2.20D-08 Max=1.77D-06 NDo=     1
 LinEq1:  Iter= 14 NonCon=     1 RMS=1.46D-08 Max=1.29D-06 NDo=     1
 LinEq1:  Iter= 15 NonCon=     1 RMS=8.44D-09 Max=6.84D-07 NDo=     1
 LinEq1:  Iter= 16 NonCon=     1 RMS=6.32D-09 Max=6.15D-07 NDo=     1
 LinEq1:  Iter= 17 NonCon=     0 RMS=3.99D-09 Max=3.82D-07 NDo=     1
 Linear equations converged to 4.376D-08 4.376D-07 after    17 iterations.
     Accept linear search using points  1 and  2.
 LinEq1:  Iter=  0 NonCon=     1 RMS=1.92D-05 Max=2.00D-03 NDo=     1
 LinEq1:  Iter=  1 NonCon=     1 RMS=1.82D-05 Max=1.95D-03 NDo=     1
 LinEq1:  Iter=  2 NonCon=     1 RMS=6.95D-06 Max=9.50D-04 NDo=     1
 LinEq1:  Iter=  3 NonCon=     1 RMS=5.76D-06 Max=4.59D-04 NDo=     1
 LinEq1:  Iter=  4 NonCon=     1 RMS=2.39D-06 Max=2.21D-04 NDo=     1
 LinEq1:  Iter=  5 NonCon=     1 RMS=1.66D-06 Max=1.38D-04 NDo=     1
 LinEq1:  Iter=  6 NonCon=     1 RMS=1.18D-06 Max=1.46D-04 NDo=     1
 LinEq1:  Iter=  7 NonCon=     1 RMS=8.45D-07 Max=1.03D-04 NDo=     1
 LinEq1:  Iter=  8 NonCon=     1 RMS=5.20D-07 Max=5.76D-05 NDo=     1
 LinEq1:  Iter=  9 NonCon=     1 RMS=2.83D-07 Max=2.55D-05 NDo=     1
 LinEq1:  Iter= 10 NonCon=     1 RMS=1.46D-07 Max=1.44D-05 NDo=     1
 LinEq1:  Iter= 11 NonCon=     1 RMS=8.26D-08 Max=6.86D-06 NDo=     1
 LinEq1:  Iter= 12 NonCon=     1 RMS=5.26D-08 Max=6.10D-06 NDo=     1
 LinEq1:  Iter= 13 NonCon=     1 RMS=3.65D-08 Max=4.12D-06 NDo=     1
 LinEq1:  Iter= 14 NonCon=     1 RMS=2.56D-08 Max=2.34D-06 NDo=     1
 LinEq1:  Iter= 15 NonCon=     1 RMS=1.39D-08 Max=1.08D-06 NDo=     1
 LinEq1:  Iter= 16 NonCon=     1 RMS=9.31D-09 Max=1.00D-06 NDo=     1
 LinEq1:  Iter= 17 NonCon=     1 RMS=6.15D-09 Max=7.51D-07 NDo=     1
 LinEq1:  Iter= 18 NonCon=     0 RMS=3.47D-09 Max=3.94D-07 NDo=     1
 Linear equations converged to 4.376D-08 4.376D-07 after    18 iterations.
     Minimum is close to point  2 DX=  3.99D-03 DF= -7.49D-10 DXR=  3.97D-03 DFR=  1.58D-05 which will be used.
 LinEq1:  Iter=  0 NonCon=     1 RMS=1.13D-07 Max=1.52D-05 NDo=     1
 LinEq1:  Iter=  1 NonCon=     1 RMS=6.69D-08 Max=6.10D-06 NDo=     1
 LinEq1:  Iter=  2 NonCon=     1 RMS=5.14D-08 Max=5.67D-06 NDo=     1
 LinEq1:  Iter=  3 NonCon=     1 RMS=3.10D-08 Max=3.49D-06 NDo=     1
 LinEq1:  Iter=  4 NonCon=     1 RMS=1.85D-08 Max=1.40D-06 NDo=     1
 LinEq1:  Iter=  5 NonCon=     1 RMS=1.36D-08 Max=1.44D-06 NDo=     1
 LinEq1:  Iter=  6 NonCon=     1 RMS=8.91D-09 Max=9.81D-07 NDo=     1
 LinEq1:  Iter=  7 NonCon=     1 RMS=6.49D-09 Max=6.36D-07 NDo=     1
 LinEq1:  Iter=  8 NonCon=     1 RMS=4.24D-09 Max=4.28D-07 NDo=     1
 LinEq1:  Iter=  9 NonCon=     1 RMS=2.68D-09 Max=2.03D-07 NDo=     1
 LinEq1:  Iter= 10 NonCon=     1 RMS=1.44D-09 Max=1.51D-07 NDo=     1
 LinEq1:  Iter= 11 NonCon=     1 RMS=8.00D-10 Max=9.41D-08 NDo=     1
 LinEq1:  Iter= 12 NonCon=     1 RMS=5.67D-10 Max=6.75D-08 NDo=     1
 LinEq1:  Iter= 13 NonCon=     1 RMS=3.66D-10 Max=3.04D-08 NDo=     1
 LinEq1:  Iter= 14 NonCon=     1 RMS=2.55D-10 Max=1.67D-08 NDo=     1
 LinEq1:  Iter= 15 NonCon=     1 RMS=1.66D-10 Max=1.70D-08 NDo=     1
 LinEq1:  Iter= 16 NonCon=     1 RMS=1.06D-10 Max=1.33D-08 NDo=     1
 LinEq1:  Iter= 17 NonCon=     1 RMS=6.14D-11 Max=5.97D-09 NDo=     1
 LinEq1:  Iter= 18 NonCon=     0 RMS=3.58D-11 Max=2.61D-09 NDo=     1
 Linear equations converged to 3.579D-10 3.579D-09 after    18 iterations.
 SCF Done:  E(UCAM-B3LYP) =  -6722.70960858     a.u. after   50 cycles
            Convg  =    0.5200D-06                   227 Fock formations.
              S**2 =  3.7557                  -V/T =  2.0107
 <Sx>= 0.0000 <Sy>= 0.0000 <Sz>= 1.5000 <S**2>= 3.7557 S= 1.5014
 <L.S>=  0.00000000000    
 Annihilation of the first spin contaminant:
 S**2 before annihilation     3.7557,   after     3.7500
 DoSCS=F DFT=T ScalE2(SS,OS)=  1.000000  1.000000
 Range of M.O.s used for correlation:     1   709
 NBasis=   709 NAE=   183 NBE=   180 NFC=     0 NFV=     0
 NROrb=    709 NOA=   183 NOB=   180 NVA=   526 NVB=   529
   1 Symmetry operations used in ECPInt.
 ECPInt:  NShTT=   32131 NPrTT=  189684 LenC2=   24036 LenP2D=   73782.
 LDataN:  DoStor=T MaxTD1= 5 Len=  102
 Number of processors reduced to  12 by ecpmxn.
 Symmetrizing basis deriv contribution to polar:
 IMax=3 JMax=2 DiffMx= 0.00D+00
 G2DrvN: will do    67 centers at a time, making    1 passes.
 Calling FoFCou, ICntrl=  3107 FMM=T I1Cent=   0 AccDes= 0.00D+00.
 End of G2Drv F.D. properties file   721 does not exist.
 End of G2Drv F.D. properties file   722 does not exist.
 End of G2Drv F.D. properties file   788 does not exist.
          IDoAtm=00110110111111111111111111111111111111111111111111
          IDoAtm=1111111111111111
          Differentiating once with respect to electric field.
                with respect to dipole field.
          Differentiating once with respect to nuclear coordinates.
 CalDSu exits because no D1Ps are significant.
          There are   189 degrees of freedom in the 1st order CPHF.  IDoFFX=6 NUNeed=     3.
    189 vectors produced by pass  0 Test12= 1.91D-13 1.00D-09 XBig12= 3.52D+02 2.86D+00.
 AX will form    96 AO Fock derivatives at one time.
    189 vectors produced by pass  1 Test12= 1.91D-13 1.00D-09 XBig12= 4.41D+01 7.31D-01.
    189 vectors produced by pass  2 Test12= 1.91D-13 1.00D-09 XBig12= 1.35D+00 1.57D-01.
    189 vectors produced by pass  3 Test12= 1.91D-13 1.00D-09 XBig12= 4.40D-02 2.10D-02.
    189 vectors produced by pass  4 Test12= 1.91D-13 1.00D-09 XBig12= 5.03D-04 1.95D-03.
    189 vectors produced by pass  5 Test12= 1.91D-13 1.00D-09 XBig12= 5.77D-06 2.69D-04.
    143 vectors produced by pass  6 Test12= 1.91D-13 1.00D-09 XBig12= 6.27D-08 2.49D-05.
     78 vectors produced by pass  7 Test12= 1.91D-13 1.00D-09 XBig12= 5.62D-10 2.26D-06.
     31 vectors produced by pass  8 Test12= 1.91D-13 1.00D-09 XBig12= 6.09D-12 1.44D-07.
      3 vectors produced by pass  9 Test12= 1.91D-13 1.00D-09 XBig12= 6.71D-14 1.48D-08.
      3 vectors produced by pass 10 Test12= 1.91D-13 1.00D-09 XBig12= 8.40D-16 2.06D-09.
 InvSVY:  IOpt=1 It=  1 EMax= 2.84D-14
 Solved reduced A of dimension  1392 with   189 vectors.
 Isotropic polarizability for W=    0.000000      356.03 Bohr**3.
 End of Minotr F.D. properties file   721 does not exist.
 End of Minotr F.D. properties file   722 does not exist.
 End of Minotr F.D. properties file   788 does not exist.

 **********************************************************************

            Population analysis using the SCF Density.

 **********************************************************************

 Alpha  occ. eigenvalues -- -482.71435-101.64274-101.59650-101.59353-101.58961
 Alpha  occ. eigenvalues -- -101.56790-101.55031 -61.79630 -56.36592 -56.36296
 Alpha  occ. eigenvalues --  -56.36273 -19.13069 -14.55764 -14.41859 -14.41609
 Alpha  occ. eigenvalues --  -14.39469 -14.37304 -14.36994 -14.33215 -10.34940
 Alpha  occ. eigenvalues --  -10.34776 -10.33476 -10.33245 -10.33012 -10.32438
 Alpha  occ. eigenvalues --  -10.31073 -10.30523 -10.30113 -10.29950 -10.28520
 Alpha  occ. eigenvalues --  -10.28406 -10.28309 -10.27741 -10.27606 -10.27469
 Alpha  occ. eigenvalues --  -10.27241 -10.26632 -10.24563 -10.20688  -9.57494
 Alpha  occ. eigenvalues --   -9.52830  -9.52550  -9.52132  -9.49957  -9.48292
 Alpha  occ. eigenvalues --   -8.57814  -7.33872  -7.33017  -7.32884  -7.29312
 Alpha  occ. eigenvalues --   -7.28965  -7.28576  -7.28240  -7.28233  -7.28012
 Alpha  occ. eigenvalues --   -7.27980  -7.27570  -7.27556  -7.26384  -7.25400
 Alpha  occ. eigenvalues --   -7.25397  -7.24715  -7.23734  -7.23718  -6.59449
 Alpha  occ. eigenvalues --   -6.58392  -6.58359  -3.89422  -2.71623  -2.71330
 Alpha  occ. eigenvalues --   -2.71303  -2.70465  -2.70465  -2.60139  -2.59191
 Alpha  occ. eigenvalues --   -2.57948  -2.14095  -1.12501  -1.10506  -1.07211
 Alpha  occ. eigenvalues --   -1.03981  -1.00920  -0.98578  -0.95678  -0.94462
 Alpha  occ. eigenvalues --   -0.93371  -0.91353  -0.90868  -0.90862  -0.90159
 Alpha  occ. eigenvalues --   -0.89998  -0.89431  -0.88130  -0.86090  -0.84856
 Alpha  occ. eigenvalues --   -0.84712  -0.79390  -0.77938  -0.77251  -0.76925
 Alpha  occ. eigenvalues --   -0.76207  -0.75006  -0.73029  -0.72374  -0.68158
 Alpha  occ. eigenvalues --   -0.66968  -0.64612  -0.63633  -0.62546  -0.62083
 Alpha  occ. eigenvalues --   -0.61606  -0.61089  -0.60457  -0.60344  -0.58889
 Alpha  occ. eigenvalues --   -0.58095  -0.57899  -0.56603  -0.55456  -0.54029
 Alpha  occ. eigenvalues --   -0.53242  -0.53004  -0.52533  -0.52480  -0.51182
 Alpha  occ. eigenvalues --   -0.51042  -0.49928  -0.49791  -0.49596  -0.49224
 Alpha  occ. eigenvalues --   -0.48712  -0.48667  -0.48372  -0.47988  -0.47773
 Alpha  occ. eigenvalues --   -0.47497  -0.47418  -0.46790  -0.46514  -0.46387
 Alpha  occ. eigenvalues --   -0.45489  -0.45324  -0.45027  -0.44890  -0.44748
 Alpha  occ. eigenvalues --   -0.44242  -0.44074  -0.43749  -0.43485  -0.43192
 Alpha  occ. eigenvalues --   -0.42566  -0.42246  -0.42084  -0.41397  -0.40846
 Alpha  occ. eigenvalues --   -0.40411  -0.39876  -0.39708  -0.38891  -0.38250
 Alpha  occ. eigenvalues --   -0.38159  -0.37616  -0.36886  -0.36778  -0.36649
 Alpha  occ. eigenvalues --   -0.35795  -0.35618  -0.35017  -0.34051  -0.33678
 Alpha  occ. eigenvalues --   -0.33087  -0.32856  -0.32723  -0.32081  -0.31077
 Alpha  occ. eigenvalues --   -0.29808  -0.28248  -0.27307  -0.26621  -0.26254
 Alpha  occ. eigenvalues --   -0.25581  -0.24573  -0.21372
 Alpha virt. eigenvalues --   -0.04462   0.01510   0.02216   0.06097   0.06391
 Alpha virt. eigenvalues --    0.07021   0.07606   0.07696   0.08332   0.08564
 Alpha virt. eigenvalues --    0.09369   0.10258   0.10409   0.11087   0.11287
 Alpha virt. eigenvalues --    0.11849   0.12119   0.12328   0.12661   0.12903
 Alpha virt. eigenvalues --    0.13480   0.13679   0.13923   0.14349   0.14427
 Alpha virt. eigenvalues --    0.14677   0.14969   0.15272   0.15516   0.15852
 Alpha virt. eigenvalues --    0.16292   0.16741   0.16773   0.17173   0.17714
 Alpha virt. eigenvalues --    0.18136   0.18717   0.19011   0.19508   0.19790
 Alpha virt. eigenvalues --    0.20186   0.20770   0.21444   0.22209   0.22800
 Alpha virt. eigenvalues --    0.23086   0.23321   0.23839   0.23912   0.24419
 Alpha virt. eigenvalues --    0.24820   0.25181   0.25267   0.25714   0.25910
 Alpha virt. eigenvalues --    0.26524   0.26999   0.27202   0.27885   0.28216
 Alpha virt. eigenvalues --    0.28633   0.29233   0.29695   0.30621   0.31116
 Alpha virt. eigenvalues --    0.31726   0.31845   0.33230   0.33327   0.33761
 Alpha virt. eigenvalues --    0.34389   0.35171   0.36267   0.37101   0.38372
 Alpha virt. eigenvalues --    0.39489   0.40746   0.41010   0.41641   0.42602
 Alpha virt. eigenvalues --    0.43100   0.43814   0.44676   0.45204   0.45801
 Alpha virt. eigenvalues --    0.46513   0.46981   0.47454   0.48276   0.48412
 Alpha virt. eigenvalues --    0.48862   0.49133   0.49427   0.49591   0.50115
 Alpha virt. eigenvalues --    0.50597   0.50897   0.51134   0.51376   0.51650
 Alpha virt. eigenvalues --    0.52301   0.52513   0.53029   0.53374   0.53594
 Alpha virt. eigenvalues --    0.53794   0.54114   0.54653   0.55018   0.55169
 Alpha virt. eigenvalues --    0.55620   0.56122   0.56507   0.56961   0.57813
 Alpha virt. eigenvalues --    0.57925   0.58106   0.58569   0.59159   0.60397
 Alpha virt. eigenvalues --    0.60927   0.62206   0.62415   0.62724   0.62934
 Alpha virt. eigenvalues --    0.63808   0.64044   0.64190   0.64372   0.64710
 Alpha virt. eigenvalues --    0.65523   0.66000   0.66190   0.66339   0.67139
 Alpha virt. eigenvalues --    0.67489   0.67745   0.68457   0.68606   0.68769
 Alpha virt. eigenvalues --    0.69674   0.69919   0.70433   0.70699   0.71344
 Alpha virt. eigenvalues --    0.71765   0.72023   0.72373   0.72829   0.73114
 Alpha virt. eigenvalues --    0.73180   0.74081   0.74395   0.75091   0.75451
 Alpha virt. eigenvalues --    0.75980   0.76599   0.77113   0.77329   0.78122
 Alpha virt. eigenvalues --    0.78359   0.78954   0.79955   0.80022   0.80368
 Alpha virt. eigenvalues --    0.81554   0.82347   0.82775   0.83776   0.84356
 Alpha virt. eigenvalues --    0.84887   0.85319   0.86477   0.87358   0.87473
 Alpha virt. eigenvalues --    0.87922   0.88615   0.88801   0.89142   0.89416
 Alpha virt. eigenvalues --    0.89638   0.89871   0.90149   0.90478   0.90550
 Alpha virt. eigenvalues --    0.91088   0.91221   0.91786   0.91983   0.92429
 Alpha virt. eigenvalues --    0.92635   0.92982   0.93229   0.93507   0.93580
 Alpha virt. eigenvalues --    0.93922   0.94108   0.94369   0.95014   0.95213
 Alpha virt. eigenvalues --    0.95335   0.95754   0.95975   0.96453   0.96665
 Alpha virt. eigenvalues --    0.96968   0.97260   0.97590   0.97665   0.98280
 Alpha virt. eigenvalues --    0.98589   0.98687   0.98865   0.98944   0.99505
 Alpha virt. eigenvalues --    0.99925   1.00336   1.00553   1.01296   1.01995
 Alpha virt. eigenvalues --    1.02127   1.02358   1.02682   1.03097   1.03508
 Alpha virt. eigenvalues --    1.03642   1.04184   1.04599   1.05310   1.05937
 Alpha virt. eigenvalues --    1.06725   1.06764   1.07124   1.07590   1.07650
 Alpha virt. eigenvalues --    1.08054   1.09033   1.09381   1.09749   1.10106
 Alpha virt. eigenvalues --    1.10492   1.10648   1.11459   1.11608   1.12829
 Alpha virt. eigenvalues --    1.13399   1.13735   1.14977   1.15406   1.15473
 Alpha virt. eigenvalues --    1.16149   1.16718   1.17781   1.18026   1.18390
 Alpha virt. eigenvalues --    1.19268   1.20767   1.20875   1.21709   1.23112
 Alpha virt. eigenvalues --    1.23354   1.23967   1.24265   1.24767   1.26004
 Alpha virt. eigenvalues --    1.26485   1.27958   1.30092   1.31505   1.32319
 Alpha virt. eigenvalues --    1.33401   1.34684   1.36449   1.37663   1.38390
 Alpha virt. eigenvalues --    1.38810   1.39712   1.41321   1.41884   1.43056
 Alpha virt. eigenvalues --    1.43460   1.44231   1.44582   1.45257   1.46269
 Alpha virt. eigenvalues --    1.46573   1.47549   1.48346   1.49262   1.49527
 Alpha virt. eigenvalues --    1.50025   1.50478   1.51237   1.51937   1.52984
 Alpha virt. eigenvalues --    1.53319   1.55476   1.56049   1.56970   1.57260
 Alpha virt. eigenvalues --    1.59420   1.59998   1.61633   1.62438   1.62702
 Alpha virt. eigenvalues --    1.65138   1.65657   1.65939   1.66979   1.67203
 Alpha virt. eigenvalues --    1.67798   1.68199   1.68767   1.68902   1.70185
 Alpha virt. eigenvalues --    1.70883   1.71259   1.71872   1.72367   1.73689
 Alpha virt. eigenvalues --    1.74143   1.74908   1.75569   1.76031   1.77178
 Alpha virt. eigenvalues --    1.78062   1.78456   1.79280   1.81763   1.82783
 Alpha virt. eigenvalues --    1.85761   1.87004   1.87437   1.88117   1.89808
 Alpha virt. eigenvalues --    1.91180   1.91887   1.93026   1.94310   1.95595
 Alpha virt. eigenvalues --    1.96278   1.97013   1.97133   1.98276   1.99825
 Alpha virt. eigenvalues --    2.00171   2.01336   2.02395   2.03111   2.03548
 Alpha virt. eigenvalues --    2.05175   2.05723   2.06728   2.08030   2.08173
 Alpha virt. eigenvalues --    2.09034   2.09191   2.09567   2.10240   2.10607
 Alpha virt. eigenvalues --    2.10858   2.11523   2.12322   2.12655   2.13162
 Alpha virt. eigenvalues --    2.13539   2.14109   2.14391   2.14658   2.15754
 Alpha virt. eigenvalues --    2.15828   2.16175   2.16711   2.17086   2.17293
 Alpha virt. eigenvalues --    2.17580   2.18015   2.18129   2.18835   2.19420
 Alpha virt. eigenvalues --    2.19910   2.20776   2.22400   2.22808   2.22944
 Alpha virt. eigenvalues --    2.23340   2.23898   2.24123   2.25894   2.27232
 Alpha virt. eigenvalues --    2.27828   2.28921   2.29064   2.31278   2.31632
 Alpha virt. eigenvalues --    2.32517   2.32878   2.33576   2.34083   2.34782
 Alpha virt. eigenvalues --    2.35315   2.35542   2.36470   2.37143   2.37547
 Alpha virt. eigenvalues --    2.37620   2.38899   2.39633   2.40626   2.40908
 Alpha virt. eigenvalues --    2.41066   2.42213   2.43474   2.44040   2.44115
 Alpha virt. eigenvalues --    2.45091   2.45441   2.46494   2.48429   2.49122
 Alpha virt. eigenvalues --    2.50336   2.51189   2.51867   2.52429   2.53129
 Alpha virt. eigenvalues --    2.53945   2.56327   2.58613   2.63242   2.65555
 Alpha virt. eigenvalues --    2.65986   2.66470   2.66770   2.67552   2.68393
 Alpha virt. eigenvalues --    2.68867   2.68974   2.69423   2.69845   2.70348
 Alpha virt. eigenvalues --    2.70634   2.71541   2.71601   2.72248   2.72675
 Alpha virt. eigenvalues --    2.72961   2.74579   2.74868   2.75433   2.76339
 Alpha virt. eigenvalues --    2.76764   2.77578   2.78434   2.78775   2.79151
 Alpha virt. eigenvalues --    2.79877   2.80580   2.82397   2.82844   2.83925
 Alpha virt. eigenvalues --    2.85536   2.86410   2.86795   2.87207   2.88166
 Alpha virt. eigenvalues --    2.88502   2.88967   2.90059   2.90719   2.91365
 Alpha virt. eigenvalues --    2.91805   2.92115   2.92975   2.93090   2.94124
 Alpha virt. eigenvalues --    2.95082   2.95166   2.96021   2.96042   2.96609
 Alpha virt. eigenvalues --    2.97757   2.99114   2.99210   2.99320   3.00609
 Alpha virt. eigenvalues --    3.00904   3.01313   3.01748   3.02304   3.05224
 Alpha virt. eigenvalues --    3.08474   3.15828   3.21623   3.24426   3.25154
 Alpha virt. eigenvalues --    3.25937   3.27921   3.28072   3.29896   3.32202
 Alpha virt. eigenvalues --    3.34087   3.36124   3.37591   3.39065   3.43495
 Alpha virt. eigenvalues --    3.44465   3.46130   3.47890   3.49067   3.49658
 Alpha virt. eigenvalues --    3.50289   3.52131   3.54169   3.55390   3.56229
 Alpha virt. eigenvalues --    3.58217   3.58471   3.58962   3.60248   3.61302
 Alpha virt. eigenvalues --    3.63283   3.63891   3.65282   3.67320   5.87361
 Alpha virt. eigenvalues --    8.61391
  Beta  occ. eigenvalues -- -482.71435-101.64273-101.59649-101.59352-101.58960
  Beta  occ. eigenvalues -- -101.56789-101.55030 -61.79630 -56.36591 -56.36296
  Beta  occ. eigenvalues --  -56.36273 -19.12677 -14.55764 -14.41854 -14.41495
  Beta  occ. eigenvalues --  -14.39348 -14.37300 -14.36857 -14.33209 -10.34940
  Beta  occ. eigenvalues --  -10.34776 -10.33469 -10.33245 -10.33012 -10.32437
  Beta  occ. eigenvalues --  -10.31066 -10.30523 -10.30102 -10.29950 -10.28520
  Beta  occ. eigenvalues --  -10.28401 -10.28309 -10.27734 -10.27606 -10.27469
  Beta  occ. eigenvalues --  -10.27241 -10.26619 -10.24552 -10.20677  -9.57493
  Beta  occ. eigenvalues --   -9.52829  -9.52549  -9.52131  -9.49955  -9.48290
  Beta  occ. eigenvalues --   -8.57813  -7.33870  -7.33016  -7.32883  -7.29310
  Beta  occ. eigenvalues --   -7.28963  -7.28574  -7.28238  -7.28232  -7.28011
  Beta  occ. eigenvalues --   -7.27979  -7.27570  -7.27555  -7.26382  -7.25398
  Beta  occ. eigenvalues --   -7.25396  -7.24713  -7.23732  -7.23717  -6.59448
  Beta  occ. eigenvalues --   -6.58392  -6.58359  -3.74125  -2.71623  -2.71330
  Beta  occ. eigenvalues --   -2.71303  -2.70465  -2.70465  -2.42803  -2.42776
  Beta  occ. eigenvalues --   -2.42635  -2.14094  -1.12501  -1.10434  -1.07127
  Beta  occ. eigenvalues --   -1.03868  -1.00151  -0.98528  -0.95658  -0.94403
  Beta  occ. eigenvalues --   -0.93358  -0.91308  -0.90868  -0.90786  -0.90159
  Beta  occ. eigenvalues --   -0.89943  -0.89431  -0.88050  -0.86009  -0.84761
  Beta  occ. eigenvalues --   -0.84711  -0.79357  -0.77770  -0.77249  -0.76924
  Beta  occ. eigenvalues --   -0.76169  -0.75006  -0.72975  -0.72342  -0.68157
  Beta  occ. eigenvalues --   -0.66876  -0.64545  -0.63540  -0.62543  -0.62079
  Beta  occ. eigenvalues --   -0.61448  -0.61022  -0.60348  -0.60312  -0.58738
  Beta  occ. eigenvalues --   -0.58094  -0.57795  -0.56532  -0.55309  -0.54016
  Beta  occ. eigenvalues --   -0.53190  -0.52684  -0.52433  -0.52056  -0.51178
  Beta  occ. eigenvalues --   -0.50996  -0.49915  -0.49634  -0.49312  -0.48715
  Beta  occ. eigenvalues --   -0.48608  -0.48489  -0.48297  -0.47929  -0.47694
  Beta  occ. eigenvalues --   -0.47462  -0.47177  -0.46458  -0.46351  -0.45432
  Beta  occ. eigenvalues --   -0.45295  -0.45170  -0.44759  -0.44740  -0.44072
  Beta  occ. eigenvalues --   -0.43802  -0.43503  -0.42991  -0.42370  -0.42089
  Beta  occ. eigenvalues --   -0.41943  -0.40444  -0.40376  -0.40119  -0.39739
  Beta  occ. eigenvalues --   -0.39501  -0.39223  -0.38911  -0.38750  -0.36948
  Beta  occ. eigenvalues --   -0.36783  -0.36667  -0.36160  -0.35742  -0.34782
  Beta  occ. eigenvalues --   -0.33845  -0.33373  -0.32737  -0.32604  -0.32407
  Beta  occ. eigenvalues --   -0.32056  -0.31273  -0.29700  -0.28378  -0.27904
  Beta  occ. eigenvalues --   -0.27306  -0.26003  -0.25399  -0.24588  -0.21357
  Beta virt. eigenvalues --   -0.04465   0.01489   0.02169   0.03906   0.04828
  Beta virt. eigenvalues --    0.05354   0.06379   0.06485   0.07236   0.07700
  Beta virt. eigenvalues --    0.07790   0.08455   0.08780   0.09506   0.10475
  Beta virt. eigenvalues --    0.10788   0.11200   0.11520   0.12021   0.12173
  Beta virt. eigenvalues --    0.12380   0.12915   0.12969   0.13533   0.13734
  Beta virt. eigenvalues --    0.13970   0.14513   0.14722   0.14878   0.15020
  Beta virt. eigenvalues --    0.15339   0.15595   0.16024   0.16329   0.16801
  Beta virt. eigenvalues --    0.16844   0.17280   0.17747   0.18211   0.18743
  Beta virt. eigenvalues --    0.19059   0.19528   0.19868   0.20225   0.20962
  Beta virt. eigenvalues --    0.21485   0.22299   0.22963   0.23149   0.23574
  Beta virt. eigenvalues --    0.23931   0.24251   0.24808   0.25000   0.25466
  Beta virt. eigenvalues --    0.25668   0.25892   0.26253   0.26948   0.27047
  Beta virt. eigenvalues --    0.27232   0.27960   0.28330   0.28800   0.29269
  Beta virt. eigenvalues --    0.29968   0.30673   0.31202   0.31880   0.32271
  Beta virt. eigenvalues --    0.33374   0.33423   0.34079   0.34515   0.35330
  Beta virt. eigenvalues --    0.36390   0.37373   0.38556   0.39568   0.40866
  Beta virt. eigenvalues --    0.41075   0.41688   0.42712   0.43110   0.43882
  Beta virt. eigenvalues --    0.44793   0.45260   0.45894   0.46637   0.47035
  Beta virt. eigenvalues --    0.47505   0.48323   0.48456   0.48908   0.49163
  Beta virt. eigenvalues --    0.49450   0.49604   0.50243   0.50637   0.50931
  Beta virt. eigenvalues --    0.51158   0.51410   0.51756   0.52381   0.52540
  Beta virt. eigenvalues --    0.53068   0.53430   0.53665   0.53830   0.54145
  Beta virt. eigenvalues --    0.54691   0.55082   0.55220   0.55687   0.56148
  Beta virt. eigenvalues --    0.56612   0.56999   0.57845   0.57965   0.58194
  Beta virt. eigenvalues --    0.58588   0.59217   0.60502   0.61018   0.62275
  Beta virt. eigenvalues --    0.62476   0.62859   0.62998   0.63846   0.64109
  Beta virt. eigenvalues --    0.64226   0.64394   0.64782   0.65536   0.66048
  Beta virt. eigenvalues --    0.66235   0.66440   0.67177   0.67594   0.67788
  Beta virt. eigenvalues --    0.68515   0.68677   0.68867   0.69778   0.70000
  Beta virt. eigenvalues --    0.70500   0.70804   0.71378   0.71862   0.72096
  Beta virt. eigenvalues --    0.72484   0.72882   0.73171   0.73327   0.74186
  Beta virt. eigenvalues --    0.74513   0.75187   0.75557   0.76126   0.76800
  Beta virt. eigenvalues --    0.77317   0.77424   0.78167   0.78410   0.78983
  Beta virt. eigenvalues --    0.80129   0.80153   0.80394   0.81666   0.82475
  Beta virt. eigenvalues --    0.82893   0.83853   0.84472   0.85004   0.85583
  Beta virt. eigenvalues --    0.86731   0.87527   0.87609   0.88058   0.88688
  Beta virt. eigenvalues --    0.88978   0.89205   0.89440   0.89661   0.90080
  Beta virt. eigenvalues --    0.90294   0.90609   0.90708   0.91164   0.91297
  Beta virt. eigenvalues --    0.91957   0.92079   0.92601   0.92758   0.92989
  Beta virt. eigenvalues --    0.93411   0.93603   0.93667   0.94010   0.94200
  Beta virt. eigenvalues --    0.94404   0.95056   0.95376   0.95417   0.95854
  Beta virt. eigenvalues --    0.96084   0.96504   0.96761   0.97126   0.97341
  Beta virt. eigenvalues --    0.97648   0.97774   0.98319   0.98708   0.98802
  Beta virt. eigenvalues --    0.98914   0.99218   0.99554   0.99997   1.00460
  Beta virt. eigenvalues --    1.00792   1.01409   1.02022   1.02261   1.02690
  Beta virt. eigenvalues --    1.02929   1.03379   1.03652   1.03812   1.04310
  Beta virt. eigenvalues --    1.05017   1.05511   1.06003   1.06912   1.07179
  Beta virt. eigenvalues --    1.07362   1.07815   1.07914   1.08521   1.09376
  Beta virt. eigenvalues --    1.09671   1.09886   1.10375   1.10760   1.10815
  Beta virt. eigenvalues --    1.11675   1.11810   1.13081   1.13701   1.13969
  Beta virt. eigenvalues --    1.15110   1.15445   1.15569   1.16487   1.16880
  Beta virt. eigenvalues --    1.18021   1.18179   1.18759   1.19572   1.20930
  Beta virt. eigenvalues --    1.21540   1.21887   1.23261   1.23618   1.24359
  Beta virt. eigenvalues --    1.24396   1.24982   1.26144   1.27027   1.28505
  Beta virt. eigenvalues --    1.30276   1.31662   1.32696   1.33636   1.34849
  Beta virt. eigenvalues --    1.36609   1.37733   1.38560   1.38909   1.39765
  Beta virt. eigenvalues --    1.41428   1.41912   1.43142   1.43514   1.44341
  Beta virt. eigenvalues --    1.44687   1.45339   1.46273   1.46695   1.47653
  Beta virt. eigenvalues --    1.48413   1.49320   1.49616   1.50055   1.50558
  Beta virt. eigenvalues --    1.51325   1.52008   1.53046   1.53361   1.55668
  Beta virt. eigenvalues --    1.56141   1.57126   1.57335   1.59525   1.60092
  Beta virt. eigenvalues --    1.61685   1.62537   1.62727   1.65162   1.65701
  Beta virt. eigenvalues --    1.65999   1.67027   1.67218   1.67868   1.68236
  Beta virt. eigenvalues --    1.68827   1.69060   1.70341   1.70966   1.71360
  Beta virt. eigenvalues --    1.71931   1.72419   1.73786   1.74218   1.75041
  Beta virt. eigenvalues --    1.75630   1.76154   1.77234   1.78188   1.78662
  Beta virt. eigenvalues --    1.79388   1.81773   1.83024   1.85767   1.87009
  Beta virt. eigenvalues --    1.87712   1.88150   1.90026   1.91182   1.91892
  Beta virt. eigenvalues --    1.93149   1.94317   1.95657   1.96323   1.97032
  Beta virt. eigenvalues --    1.97182   1.98304   1.99827   2.00251   2.01425
  Beta virt. eigenvalues --    2.02523   2.03118   2.03551   2.05305   2.05856
  Beta virt. eigenvalues --    2.06736   2.08109   2.08204   2.09036   2.09248
  Beta virt. eigenvalues --    2.09597   2.10284   2.10806   2.10950   2.11579
  Beta virt. eigenvalues --    2.12385   2.12676   2.13203   2.13751   2.14181
  Beta virt. eigenvalues --    2.14521   2.14758   2.15783   2.15838   2.16235
  Beta virt. eigenvalues --    2.16737   2.17116   2.17337   2.17628   2.18052
  Beta virt. eigenvalues --    2.18216   2.18889   2.19458   2.19980   2.20788
  Beta virt. eigenvalues --    2.22447   2.22826   2.22977   2.23379   2.23911
  Beta virt. eigenvalues --    2.24129   2.25983   2.27326   2.27840   2.29021
  Beta virt. eigenvalues --    2.29066   2.31305   2.31636   2.32523   2.32943
  Beta virt. eigenvalues --    2.33588   2.34204   2.34806   2.35331   2.35576
  Beta virt. eigenvalues --    2.36534   2.37187   2.37598   2.37641   2.38963
  Beta virt. eigenvalues --    2.39705   2.40705   2.40960   2.41116   2.42257
  Beta virt. eigenvalues --    2.43550   2.44067   2.44120   2.45152   2.45523
  Beta virt. eigenvalues --    2.46500   2.48440   2.49150   2.50376   2.51246
  Beta virt. eigenvalues --    2.51875   2.52503   2.53133   2.54023   2.56328
  Beta virt. eigenvalues --    2.58616   2.63246   2.65592   2.65997   2.66526
  Beta virt. eigenvalues --    2.66827   2.67570   2.68430   2.68932   2.69014
  Beta virt. eigenvalues --    2.69482   2.69889   2.70391   2.70684   2.71569
  Beta virt. eigenvalues --    2.71669   2.72258   2.72707   2.73037   2.74629
  Beta virt. eigenvalues --    2.74909   2.75472   2.76385   2.76765   2.77581
  Beta virt. eigenvalues --    2.78480   2.78795   2.79243   2.79926   2.80628
  Beta virt. eigenvalues --    2.82415   2.82888   2.83930   2.85543   2.86430
  Beta virt. eigenvalues --    2.86851   2.87234   2.88195   2.88510   2.89004
  Beta virt. eigenvalues --    2.90117   2.90728   2.91374   2.91850   2.92189
  Beta virt. eigenvalues --    2.93011   2.93125   2.94132   2.95088   2.95220
  Beta virt. eigenvalues --    2.96025   2.96108   2.96612   2.97758   2.99173
  Beta virt. eigenvalues --    2.99242   2.99369   3.00677   3.00972   3.01316
  Beta virt. eigenvalues --    3.01753   3.02349   3.05260   3.08511   3.15999
  Beta virt. eigenvalues --    3.21667   3.24426   3.25195   3.25941   3.27974
  Beta virt. eigenvalues --    3.28074   3.29897   3.32215   3.34087   3.36125
  Beta virt. eigenvalues --    3.37593   3.39076   3.43495   3.44466   3.46131
  Beta virt. eigenvalues --    3.47919   3.49068   3.49659   3.50289   3.52131
  Beta virt. eigenvalues --    3.54177   3.55392   3.56230   3.58218   3.58486
  Beta virt. eigenvalues --    3.58963   3.60280   3.61303   3.63310   3.63921
  Beta virt. eigenvalues --    3.65313   3.67325   5.86607   8.61392
          Condensed to atoms (all electrons):
          Atomic-Atomic Spin Densities.
 Mulliken charges and spin densities:
               1          2
     1  Li   0.586207   0.000490
     2  N   -0.506103   0.001084
     3  C    0.062204   0.003343
     4  Cl   0.049641   0.001000
     5  N   -0.427971   0.001311
     6  C   -0.016173   0.005383
     7  Cl  -0.045182   0.000890
     8  N   -0.384019   0.001763
     9  C    0.009418   0.007209
    10  Cl  -0.047984   0.001158
    11  N   -0.471320   0.037560
    12  C    0.057499  -0.001068
    13  Cl   0.058526   0.000954
    14  N   -0.524403   0.053736
    15  C    0.026125  -0.002862
    16  Cl  -0.036573   0.000572
    17  N   -0.485391   0.040167
    18  C    0.033859  -0.002299
    19  Cl  -0.006231   0.000565
    20  C    0.239984   0.001668
    21  H    0.143015   0.000630
    22  C    0.178786   0.002611
    23  H    0.103041   0.000445
    24  C    0.179297   0.001949
    25  H    0.118467   0.000556
    26  Co   0.741030   2.692951
    27  C    0.255523  -0.004812
    28  C   -0.187671   0.002930
    29  O   -0.677126   0.137856
    30  C   -0.318364   0.004289
    31  H    0.155098  -0.000424
    32  H    0.157931  -0.000185
    33  H    0.117806  -0.000286
    34  H    0.103908  -0.000148
    35  H    0.085871   0.001504
    36  H    0.054129   0.006342
    37  N   -0.378944  -0.000008
    38  C   -0.070955   0.000008
    39  C   -0.344145   0.000001
    40  H    0.172506   0.000022
    41  H    0.141366   0.000001
    42  H    0.143541  -0.000000
    43  H    0.135254   0.000000
    44  H    0.124144   0.000000
    45  C   -0.067179   0.000002
    46  C   -0.345712   0.000006
    47  H    0.143752  -0.000000
    48  H    0.133904  -0.000000
    49  H    0.127240   0.000003
    50  H    0.159085  -0.000000
    51  H    0.151114   0.000001
    52  C   -0.094868   0.000027
    53  C   -0.347373   0.000013
    54  H    0.199641   0.000060
    55  H    0.124055   0.000000
    56  H    0.157041   0.000001
    57  H    0.157177   0.000003
    58  H    0.122914   0.000004
    59  C   -0.076553   0.000110
    60  C   -0.345881   0.000004
    61  H    0.176285   0.000009
    62  H    0.164337  -0.000010
    63  H    0.163775  -0.000004
    64  H    0.114157   0.000001
    65  H    0.128541   0.000001
    66  Br  -0.251073   0.000914
 Sum of Mulliken charges =   0.00000   3.00000
 Mulliken charges and spin densities with hydrogens summed into heavy atoms:
               1          2
     1  Li   0.586207   0.000490
     2  N   -0.506103   0.001084
     3  C    0.062204   0.003343
     4  Cl   0.049641   0.001000
     5  N   -0.427971   0.001311
     6  C   -0.016173   0.005383
     7  Cl  -0.045182   0.000890
     8  N   -0.384019   0.001763
     9  C    0.009418   0.007209
    10  Cl  -0.047984   0.001158
    11  N   -0.471320   0.037560
    12  C    0.057499  -0.001068
    13  Cl   0.058526   0.000954
    14  N   -0.524403   0.053736
    15  C    0.026125  -0.002862
    16  Cl  -0.036573   0.000572
    17  N   -0.485391   0.040167
    18  C    0.033859  -0.002299
    19  Cl  -0.006231   0.000565
    20  C    0.382999   0.002298
    22  C    0.281827   0.003056
    24  C    0.297764   0.002505
    26  Co   0.741030   2.692951
    27  C    0.309653   0.001530
    28  C    0.125358   0.002322
    29  O   -0.677126   0.137856
    30  C   -0.010779   0.005359
    37  N   -0.378944  -0.000008
    38  C    0.242917   0.000031
    39  C    0.058794   0.000001
    45  C    0.210477   0.000002
    46  C    0.091727   0.000010
    52  C    0.228829   0.000087
    53  C    0.089759   0.000021
    59  C    0.264068   0.000109
    60  C    0.060591   0.000002
    66  Br  -0.251073   0.000914
 Electronic spatial extent (au):  <R**2>=          28670.2401
 Charge=              0.0000 electrons
 Dipole moment (field-independent basis, Debye):
    X=             11.8855    Y=              1.1672    Z=             -7.5295  Tot=             14.1181
 Quadrupole moment (field-independent basis, Debye-Ang):
   XX=           -307.4433   YY=           -137.0459   ZZ=           -265.7522
   XY=             66.0698   XZ=             17.1681   YZ=             52.4944
 Traceless Quadrupole moment (field-independent basis, Debye-Ang):
   XX=            -70.6962   YY=             99.7012   ZZ=            -29.0051
   XY=             66.0698   XZ=             17.1681   YZ=             52.4944
 Octapole moment (field-independent basis, Debye-Ang**2):
  XXX=            319.6753  YYY=           -254.0095  ZZZ=            -17.4072  XYY=             79.7078
  XXY=             41.8032  XXZ=             15.6721  XZZ=            -68.1186  YZZ=           -239.1077
  YYZ=           -341.4174  XYZ=            -86.8582
 Hexadecapole moment (field-independent basis, Debye-Ang**3):
 XXXX=         -14675.5577 YYYY=         -11250.7544 ZZZZ=          -5666.4887 XXXY=          -2683.7055
 XXXZ=            -83.9610 YYYX=          -1587.2526 YYYZ=           1647.6513 ZZZX=            -58.1582
 ZZZY=             48.4917 XXYY=          -4299.4604 XXZZ=          -3354.1775 YYZZ=          -2371.4822
 XXYZ=           -174.5585 YYXZ=            486.1752 ZZXY=           -764.6482
 N-N= 6.782927865032D+03 E-N=-2.952506636367D+04  KE= 6.651401401377D+03
  Exact polarizability: 358.079  26.811 377.701  -8.016  15.765 332.317
 Approx polarizability: 411.699   2.474 417.067 -20.678   7.403 416.984
                          Isotropic Fermi Contact Couplings
        Atom                 a.u.       MegaHertz       Gauss      10(-4) cm-1
     1  Li(7)              0.00010       0.05741       0.02049       0.01915
     2  N(14)              0.00139       0.14973       0.05343       0.04995
     3  C(13)              0.00382       1.43233       0.51109       0.47777
     4  Cl(35)             0.00080       0.11649       0.04157       0.03886
     5  N(14)              0.00046       0.04971       0.01774       0.01658
     6  C(13)              0.00360       1.35063       0.48194       0.45052
     7  Cl(35)             0.00053       0.07684       0.02742       0.02563
     8  N(14)             -0.00009      -0.00991      -0.00354      -0.00330
     9  C(13)              0.00425       1.59349       0.56860       0.53153
    10  Cl(35)             0.00051       0.07462       0.02663       0.02489
    11  N(14)              0.06290       6.77447       2.41730       2.25972
    12  C(13)              0.00034       0.12913       0.04608       0.04307
    13  Cl(35)             0.00132       0.19270       0.06876       0.06428
    14  N(14)              0.06481       6.97988       2.49059       2.32824
    15  C(13)              0.00142       0.53148       0.18965       0.17728
    16  Cl(35)             0.00158       0.23059       0.08228       0.07692
    17  N(14)              0.06327       6.81454       2.43160       2.27309
    18  C(13)              0.00039       0.14664       0.05233       0.04891
    19  Cl(35)             0.00123       0.18050       0.06441       0.06021
    20  C(13)              0.00174       0.65356       0.23321       0.21800
    21  H(1)               0.00020       0.29977       0.10697       0.09999
    22  C(13)              0.00146       0.54829       0.19564       0.18289
    23  H(1)               0.00005       0.07933       0.02831       0.02646
    24  C(13)              0.00129       0.48420       0.17277       0.16151
    25  H(1)               0.00018       0.26628       0.09501       0.08882
    26  Co(59)             0.00000       0.00170       0.00061       0.00057
    27  C(13)              0.00118       0.44262       0.15794       0.14764
    28  C(13)              0.00211       0.79028       0.28199       0.26361
    29  O(17)              0.08253     -16.67731      -5.95088      -5.56295
    30  C(13)              0.00467       1.74929       0.62419       0.58350
    31  H(1)              -0.00009      -0.12680      -0.04525      -0.04230
    32  H(1)              -0.00005      -0.08033      -0.02866      -0.02679
    33  H(1)              -0.00008      -0.11510      -0.04107      -0.03839
    34  H(1)              -0.00005      -0.06832      -0.02438      -0.02279
    35  H(1)               0.00045       0.66303       0.23659       0.22116
    36  H(1)               0.00213       3.16972       1.13103       1.05730
    37  N(14)             -0.00001      -0.00091      -0.00033      -0.00030
    38  C(13)              0.00003       0.01024       0.00365       0.00341
    39  C(13)              0.00000       0.00011       0.00004       0.00004
    40  H(1)              -0.00000      -0.00098      -0.00035      -0.00033
    41  H(1)               0.00000       0.00030       0.00011       0.00010
    42  H(1)               0.00000       0.00008       0.00003       0.00003
    43  H(1)               0.00000       0.00007       0.00002       0.00002
    44  H(1)               0.00000       0.00008       0.00003       0.00003
    45  C(13)              0.00000       0.00065       0.00023       0.00022
    46  C(13)              0.00000       0.00044       0.00016       0.00015
    47  H(1)              -0.00000      -0.00006      -0.00002      -0.00002
    48  H(1)               0.00000       0.00002       0.00001       0.00001
    49  H(1)               0.00000       0.00150       0.00053       0.00050
    50  H(1)               0.00000       0.00108       0.00039       0.00036
    51  H(1)               0.00000       0.00121       0.00043       0.00040
    52  C(13)              0.00004       0.01355       0.00484       0.00452
    53  C(13)             -0.00000      -0.00027      -0.00010      -0.00009
    54  H(1)              -0.00000      -0.00484      -0.00173      -0.00161
    55  H(1)               0.00000       0.00019       0.00007       0.00006
    56  H(1)              -0.00000      -0.00022      -0.00008      -0.00007
    57  H(1)               0.00000       0.00103       0.00037       0.00034
    58  H(1)               0.00000       0.00214       0.00077       0.00072
    59  C(13)             -0.00003      -0.00986      -0.00352      -0.00329
    60  C(13)              0.00000       0.00165       0.00059       0.00055
    61  H(1)              -0.00000      -0.00675      -0.00241      -0.00225
    62  H(1)               0.00000       0.00023       0.00008       0.00008
    63  H(1)               0.00000       0.00313       0.00112       0.00105
    64  H(1)               0.00000       0.00074       0.00027       0.00025
    65  H(1)               0.00000       0.00454       0.00162       0.00151
    66  Br(79)            -0.00024      -0.08922      -0.03184      -0.02976
 --------------------------------------------------------
       Center         ----  Spin Dipole Couplings  ----
                      3XX-RR        3YY-RR        3ZZ-RR
 --------------------------------------------------------
     1   Atom       -0.001920      0.001934     -0.000014
     2   Atom       -0.008396      0.009389     -0.000993
     3   Atom       -0.003311      0.007618     -0.004307
     4   Atom       -0.002646      0.006351     -0.003705
     5   Atom       -0.000746      0.005480     -0.004734
     6   Atom        0.001202     -0.003927      0.002724
     7   Atom        0.002078     -0.001926     -0.000153
     8   Atom        0.011824     -0.005270     -0.006555
     9   Atom        0.006209      0.002516     -0.008726
    10   Atom        0.006167      0.001649     -0.007816
    11   Atom       -0.061451      0.101299     -0.039848
    12   Atom       -0.008676      0.021574     -0.012898
    13   Atom       -0.005817      0.008581     -0.002764
    14   Atom        0.101794     -0.011802     -0.089993
    15   Atom        0.017141     -0.012361     -0.004780
    16   Atom        0.002326     -0.010962      0.008636
    17   Atom        0.011363     -0.021077      0.009714
    18   Atom        0.020039     -0.013449     -0.006590
    19   Atom        0.011927     -0.002728     -0.009199
    20   Atom       -0.013707      0.008513      0.005194
    21   Atom       -0.011405     -0.002077      0.013481
    22   Atom        0.009072     -0.003090     -0.005982
    23   Atom        0.000121     -0.006950      0.006829
    24   Atom       -0.011916      0.011159      0.000757
    25   Atom       -0.012568      0.014543     -0.001975
    26   Atom       -0.209745     -0.271978      0.481723
    27   Atom        0.012335     -0.014286      0.001951
    28   Atom       -0.005013      0.000449      0.004565
    29   Atom       -0.125275     -0.077597      0.202872
    30   Atom        0.005877     -0.007995      0.002118
    31   Atom       -0.010709      0.008266      0.002444
    32   Atom       -0.005665     -0.003071      0.008736
    33   Atom        0.006563     -0.005442     -0.001121
    34   Atom       -0.001142     -0.005442      0.006584
    35   Atom        0.003021     -0.003658      0.000637
    36   Atom        0.017793     -0.008753     -0.009040
    37   Atom       -0.000241      0.001700     -0.001459
    38   Atom       -0.000365      0.001409     -0.001044
    39   Atom       -0.000053      0.000681     -0.000628
    40   Atom       -0.000529      0.001679     -0.001151
    41   Atom       -0.000585      0.001497     -0.000912
    42   Atom       -0.000137      0.000604     -0.000467
    43   Atom        0.000190      0.000436     -0.000626
    44   Atom       -0.000058      0.000576     -0.000518
    45   Atom       -0.000047      0.000882     -0.000835
    46   Atom        0.000002      0.000602     -0.000605
    47   Atom        0.000182      0.000532     -0.000714
    48   Atom       -0.000233      0.000890     -0.000657
    49   Atom        0.000019      0.000351     -0.000369
    50   Atom        0.000395      0.000290     -0.000686
    51   Atom       -0.000371      0.000844     -0.000473
    52   Atom       -0.001292      0.003123     -0.001831
    53   Atom       -0.002630      0.005612     -0.002982
    54   Atom       -0.001443      0.003230     -0.001787
    55   Atom       -0.001003      0.002164     -0.001161
    56   Atom       -0.003112      0.006168     -0.003057
    57   Atom       -0.004123      0.009232     -0.005109
    58   Atom       -0.001905      0.003819     -0.001914
    59   Atom        0.000880      0.001240     -0.002120
    60   Atom        0.001370      0.000061     -0.001432
    61   Atom        0.001337      0.001090     -0.002428
    62   Atom        0.000840      0.002340     -0.003180
    63   Atom        0.002422     -0.000687     -0.001735
    64   Atom        0.000992      0.000007     -0.000999
    65   Atom        0.000984      0.000087     -0.001072
    66   Atom       -0.005492      0.009660     -0.004169
 --------------------------------------------------------
                        XY            XZ            YZ
 --------------------------------------------------------
     1   Atom        0.000610      0.000418      0.002781
     2   Atom        0.001930      0.001231      0.010861
     3   Atom        0.002553      0.002299      0.003312
     4   Atom        0.003191      0.002519      0.004948
     5   Atom        0.010656     -0.006565     -0.007961
     6   Atom        0.005653     -0.004573     -0.001199
     7   Atom        0.006177     -0.003074     -0.001829
     8   Atom       -0.012625     -0.008538      0.004493
     9   Atom       -0.003375      0.000112     -0.001207
    10   Atom       -0.003714     -0.001406     -0.000042
    11   Atom        0.033030      0.022211      0.077845
    12   Atom        0.016895     -0.002381      0.000060
    13   Atom        0.011339     -0.007866     -0.007436
    14   Atom       -0.096390     -0.020594      0.008077
    15   Atom       -0.020281      0.016494     -0.006102
    16   Atom       -0.008099      0.014538     -0.004849
    17   Atom        0.075298     -0.080214     -0.060468
    18   Atom        0.001747     -0.019440     -0.005476
    19   Atom       -0.009191     -0.009953      0.002439
    20   Atom       -0.003166     -0.001159      0.021723
    21   Atom       -0.003384     -0.006273      0.016391
    22   Atom       -0.015335     -0.018264      0.010521
    23   Atom       -0.010329     -0.015830      0.012048
    24   Atom        0.011671     -0.007735     -0.016646
    25   Atom        0.001045     -0.001257     -0.017513
    26   Atom       -0.379831      0.651330      0.237317
    27   Atom        0.019013      0.029132      0.012991
[...]
 .00008544,-0.00000575,0.00006171,0.00163558,-0.00038641,0.00104657,-0.
 00030008,-0.00003314,-0.00000998,-0.00012895,0.00007913,-0.00027396,0.
 00009837,-0.00010580,-0.00015609,0.00002448,0.00007332,0.00003690,0.00
 014597,-0.00004780,-0.00001252,0.00005812,0.00001893,0.00033259,0.0000
 1668,0.00009620,0.00003706,-0.00112069,-0.00013623,-0.00001916,0.00011
 895,0.00023646,0.00000587,0.00004782,0.00140341,0.00000616,0.00047301,
 0.00017040,0.00008224,0.00011875,-0.00010494,0.00005197,0.00017830,-0.
 00027736,-0.00058496,0.00008828,-0.00019462,0.00016904,-0.00000710,-0.
 00030416,-0.00007832,-0.00013328,-0.00018409,-0.00009011,-0.00000039,-
 0.00008548,0.00006319,0.00002026,0.00014075,-0.00000704,-0.00002947,0.
 00014803,-0.00003414,0.00007478,0.00027185,-0.00002823,0.00000876,0.00
 002710,-0.00000020,-0.01863599,-0.01997651,0.01634393,-0.15500351,-0.1
 0544517,0.08050129,0.00083403,0.00047828,0.00010155,-0.00473998,0.0003
 9567,-0.00357676,0.00870552,0.00716101,-0.00674729,0.16767577,0.,0.,0.
 ,0.,0.,0.,0.00000536,0.00000691,0.00000057,-0.00000331,-0.00000945,-0.
 00000453,0.,0.,0.,-0.00045003,-0.00013470,0.00009695,0.00024322,0.0001
 4796,0.00007324,0.,0.,0.,0.00001480,-0.00000881,0.00000717,-0.00001312
 ,0.00000667,-0.00000743,-0.00000136,-0.00002361,-0.00002651,0.00000563
 ,0.00001369,0.00000616,0.00000219,-0.00000300,-0.00000650,-0.00002192,
 -0.00000030,-0.00001425,-0.00000665,0.00000577,0.00003637,0.00000363,-
 0.00000273,-0.00001928,0.00016934,0.00002940,-0.00009976,0.00000599,-0
 .00007752,0.00001125,-0.00001706,0.00004582,-0.00002941,-0.00001335,0.
 00001139,0.00002506,-0.00000076,-0.00000048,0.00000183,0.00000761,-0.0
 0001302,-0.00000588,0.00000705,0.00000534,-0.00000553,0.00004932,0.000
 00433,-0.00001794,0.00001454,0.00001016,0.00000546,0.00005289,0.000012
 48,0.00019317,0.00025007,0.00026650,-0.00008982,0.00003707,-0.00002424
 ,-0.00002572,-0.00022184,-0.00014681,-0.00016754,-0.00001904,0.0000097
 2,0.00004090,0.00000654,0.00000853,-0.00000209,-0.00000804,0.00001566,
 0.00002514,0.00000717,0.00000879,-0.00000288,-0.00001589,-0.00002587,0
 .00001205,-0.00001369,0.00000891,-0.00004427,-0.00002352,-0.00005748,0
 .00009651,-0.00059477,0.00079406,-0.00068728,0.00017829,-0.00006331,-0
 .00024700,0.00000257,0.00009769,0.00002111,-0.00001055,-0.00001337,-0.
 00001243,-0.00002002,0.00001281,0.00002996,-0.00003461,0.00004237,0.00
 002726,0.00002159,0.00000064,-0.00019320,-0.00000316,0.00001227,0.0000
 1270,0.00051350,-0.00095317,0.00090565,-0.00002142,0.00005136,0.000085
 86,0.00118261,-0.00118058,0.00081705,0.00010334,0.00014958,-0.00014265
 ,0.00010848,-0.00010017,0.00001776,0.00002497,0.00005819,-0.00026505,0
 .00005484,-0.00006419,-0.00003572,0.00017268,0.00015636,0.00022556,-0.
 00007709,0.00001841,-0.00009538,-0.00003452,-0.00000754,0.00001075,-0.
 00009221,0.00002070,-0.00004627,-0.00002558,-0.00000205,0.00002070,0.0
 0004544,0.00002125,0.00001341,0.00001387,-0.00000043,0.00000008,0.0027
 2109,-0.00028360,-0.00109831,-0.10719074,-0.15163445,0.08041086,-0.000
 37711,-0.00016789,0.00010086,0.00055830,0.00109967,-0.00017147,-0.0198
 9344,-0.01684897,0.01502417,0.11558952,0.16332479,0.,0.,0.,0.,0.,0.,-0
 .00000488,-0.00000768,-0.00000173,0.00000439,0.00000904,0.00000298,0.,
 0.,0.,-0.00012878,-0.00005966,0.00003639,0.00007831,0.00005603,0.00002
 105,0.,0.,0.,-0.00000974,0.00000406,-0.00000437,0.00001224,-0.00000797
 ,0.00000628,0.00000844,0.00001486,0.00001572,-0.00000736,-0.00000682,0
 .00000147,0.00000096,0.00000107,0.00000090,0.00002363,-0.00002230,0.00
 000897,-0.00000390,-0.00000067,-0.00000483,0.00000269,-0.00000003,0.00
 000611,0.00003371,0.00000892,-0.00003278,0.00000081,0.00000076,-0.0000
 0771,0.00000433,0.00000418,0.00000689,0.00000349,-0.00001154,-0.000013
 80,-0.00000115,-0.00000094,-0.00000203,-0.00001512,0.00001464,-0.00001
 219,-0.00000714,-0.00000263,0.00000354,0.00000140,-0.00000979,-0.00000
 520,0.00000993,0.00000673,0.00000919,-0.00006403,0.00002779,-0.0001082
 2,0.00007934,-0.00006394,-0.00013384,-0.00014138,-0.00018985,-0.000333
 51,0.00006858,0.00008793,0.00019969,-0.00003778,-0.00001864,0.00000505
 ,0.00004192,0.00005000,0.00001192,0.00006228,0.00006903,0.00008541,-0.
 00000200,0.00001262,0.00000560,0.00001563,0.00000147,0.00000461,0.0000
 2456,-0.00001676,0.00001985,-0.00002047,0.00001298,0.00000578,0.000939
 07,0.00059294,0.00041321,0.00009423,0.00027122,-0.00008649,0.00023813,
 -0.00007558,0.00036564,-0.00012908,-0.00001250,-0.00008098,-0.00005743
 ,-0.00008411,0.00003076,-0.00019247,0.00013215,-0.00001427,0.00002063,
 0.00018104,-0.00045036,-0.00000636,-0.00002958,0.00000183,-0.00034073,
 0.00096654,0.00020366,-0.00045431,0.00047064,-0.00015550,-0.00045312,0
 .00030635,-0.00006034,0.00002490,-0.00008148,-0.00011504,-0.00000105,-
 0.00001930,-0.00001318,-0.00018990,-0.00011746,-0.00074992,0.00014895,
 -0.00018568,0.00001578,0.00014885,-0.00025153,0.00006692,-0.00009362,-
 0.00011402,-0.00004879,-0.00002737,-0.00001838,-0.00000229,0.00005767,
 0.00000952,0.00001332,-0.00001756,0.00005422,-0.00000395,0.00000177,0.
 00009520,-0.00000876,0.00000684,0.00001822,-0.00000642,-0.00788391,-0.
 01160145,0.00871657,0.08127484,0.08148850,-0.11565682,0.00055212,-0.00
 017891,0.00041104,-0.00289264,0.00030405,-0.00086187,-0.00279262,-0.00
 229768,0.00093930,-0.08712770,-0.09090909,0.11887421,0.,0.,0.,0.,0.,0.
 ,-0.00000464,-0.00000337,0.00000193,0.00000002,0.00000242,0.00000189,0
 .,0.,0.,-0.00049392,0.00005514,-0.00006218,0.00014110,0.00007970,0.000
 07455,0.,0.,0.,-0.00000565,0.00000238,0.00000331,0.00000690,-0.0000040
 3,0.00000601,-0.00000750,0.00000157,0.00002418,0.00000325,-0.00001102,
 -0.00001369,-0.00000453,0.00000155,0.00000757,-0.00000912,-0.00000863,
 0.00002298,0.00001752,-0.00001735,-0.00001814,-0.00000919,0.00000051,0
 .00002216,-0.00001773,-0.00010332,0.00012139,0.00000384,0.00011503,-0.
 00002458,0.00004160,-0.00006651,0.00004060,0.00001321,0.00000186,-0.00
 001342,-0.00000093,0.00000608,0.00000167,-0.00000597,0.00001552,-0.000
 03454,-0.00001022,-0.00000907,0.00000640,0.00027511,0.00014562,-0.0002
 1582,0.00001087,0.00000544,0.00001096,0.00001517,0.00007457,-0.0002440
 1,0.00015484,-0.00015235,-0.00020063,-0.00030534,-0.00025336,-0.000507
 37,0.00006666,0.00016365,0.00033896,-0.00002381,0.00002052,0.00004669,
 0.00002107,0.00003774,0.00001435,0.00007798,0.00009313,0.00012948,-0.0
 0000988,0.00002436,0.00000597,0.00000178,-0.00000975,-0.00000137,0.000
 03526,-0.00001763,-0.00000215,-0.00004243,-0.00000013,0.00000435,0.001
 08844,-0.00007861,0.00029830,-0.00002733,0.00059982,-0.00058052,-0.000
 07334,0.00051475,0.00031952,-0.00047833,-0.00005636,0.00008784,-0.0000
 2843,-0.00012905,0.00020765,-0.00003674,0.00012165,0.00002632,0.000408
 71,0.00056514,0.00006206,0.00001686,-0.00004693,0.00001722,-0.00020161
 ,-0.00013580,0.00011518,-0.00001651,0.00010608,0.00004104,0.00001429,0
 .00011210,0.00003812,0.00007290,0.00005594,-0.00003416,0.00002895,0.00
 002165,0.00001260,-0.00007948,-0.00009002,-0.00012972,0.00007057,-0.00
 010849,0.00006752,-0.00003266,-0.00007530,-0.00002406,0.00002712,-0.00
 002085,-0.00002281,0.00007035,-0.00000173,0.00015587,-0.00008171,0.000
 10893,0.00009756,-0.00000998,0.00001100,0.00001573,0.00005097,0.000017
 33,-0.00005276,-0.00004634,0.00002262,0.00002071,0.00182002,-0.0102991
 2,-0.03382998,-0.05095347,0.00163973,0.01096994,-0.00588412,0.00061912
 ,-0.00134975,0.00147515,0.00022081,0.00043899,-0.00068561,0.00148567,0
 .01219313,-0.00030024,0.00699135,0.01865926,0.05379380,0.,0.,0.,0.,0.,
 0.,-0.00000548,-0.00000284,0.00000385,-0.00000050,0.00000250,0.0000029
 9,0.,0.,0.,0.00008255,0.00000405,0.00004772,-0.00007368,-0.00001909,-0
 .00005858,0.,0.,0.,-0.00000847,0.00000321,0.00000086,0.00001431,-0.000
 01096,0.00000999,-0.00000608,0.00000267,0.00003419,0.00000194,-0.00001
 561,-0.00001770,-0.00000612,0.00000241,0.00001088,0.00001259,-0.000027
 19,0.00003064,0.00001163,-0.00001536,-0.00002630,-0.00000831,-0.000000
 84,0.00002655,-0.00008621,-0.00009233,0.00009462,0.00005645,0.00008706
 ,-0.00005850,-0.00000260,-0.00003513,0.00002519,0.00002017,0.00000271,
 -0.00002268,0.00000109,0.00000665,0.00000305,-0.00002246,0.00002672,-0
 .00003591,-0.00001323,-0.00000724,0.00000962,0.00001431,0.00008220,-0.
 00007556,0.00000795,0.00000611,0.00000600,-0.00002731,0.00008976,-0.00
 034567,0.00000908,-0.00017648,-0.00024367,-0.00020670,-0.00039139,-0.0
 0040229,0.00018263,0.00018322,0.00045082,-0.00005519,-0.00004760,-0.00
 001840,0.00005394,0.00008965,0.00002093,0.00007976,0.00007663,0.000102
 32,-0.00000616,0.00003903,0.00000639,0.00002411,0.00001462,0.00001267,
 0.00004959,-0.00003179,0.00004973,-0.00003127,-0.00002518,-0.00001560,
 -0.00069264,0.00050002,0.00060802,0.00011762,0.00047122,0.00014156,0.0
 0060468,-0.00135646,-0.00018503,0.00005867,0.00018188,-0.00012013,-0.0
 0012384,-0.00004348,-0.00009907,-0.00002045,-0.00001181,-0.00002490,0.
 00061535,-0.00269256,-0.00039171,-0.00016841,0.00003134,-0.00004639,-0
 .00016276,-0.00011963,0.00026024,0.00001655,0.00010140,0.00004161,-0.0
 0010995,0.00005680,0.00017984,0.00006700,0.00001364,0.00000078,0.00003
 660,-0.00001743,0.00000032,0.00003704,-0.00012907,-0.00022759,0.000077
 03,-0.00009899,0.00001561,0.00031662,0.00008693,0.00002995,-0.00002786
 ,0.00003057,-0.00001271,-0.00003487,-0.00002629,0.00000522,-0.00003846
 ,-0.00002271,-0.00001525,-0.00000200,-0.00001549,0.00001298,0.00001388
 ,-0.00001160,-0.00002929,0.00001159,0.00002621,-0.00000882,0.00046223,
 -0.00151847,0.00075954,0.00037652,-0.06167249,-0.05950215,-0.00043622,
 0.00128385,0.00002729,-0.00012276,-0.00010155,-0.00059469,0.00010058,-
 0.00523878,-0.03010195,0.00090077,0.00532190,0.02087820,-0.00230409,0.
 06498464,0.,0.,0.,0.,0.,0.,0.00000341,0.00000923,0.00000476,-0.0000072
 6,-0.00001224,-0.00000252,0.,0.,0.,-0.00007740,0.00004438,-0.00005342,
 -0.00002677,-0.00003448,-0.00002808,0.,0.,0.,0.00001574,-0.00000779,0.
 00001001,-0.00001299,0.00000815,-0.00000409,-0.00001901,-0.00002524,0.
 00000212,0.00001444,-0.00000029,-0.00001712,-0.00000615,-0.00000035,0.
 00000700,-0.00004663,0.00000851,0.00001232,0.00001757,-0.00001445,-0.0
 0000097,-0.00001091,-0.00000043,0.00000912,-0.00008718,-0.00008638,0.0
 0008640,0.00000823,0.00011105,-0.00005238,0.00001930,-0.00005067,0.000
 02424,0.00000832,0.00002004,0.00000693,0.00000117,0.00000760,0.0000047
 9,0.00001233,-0.00000676,-0.00002576,0.00000135,-0.00000149,-0.0000004
 4,0.00012435,0.00007038,-0.00008515,-0.00000021,-0.00000026,0.00000353
 ,0.00009856,0.00007181,-0.00009730,0.00003741,0.00001424,-0.00009007,-
 0.00002398,0.00004081,-0.00004714,0.00001622,0.00000415,0.00010028,-0.
 00001760,-0.00001533,0.00000041,-0.00000080,-0.00001463,-0.00000410,0.
 00000140,0.00002452,0.00001609,-0.00000268,0.00000796,-0.00000333,0.00
 000439,-0.00000175,0.00000867,0.00000905,-0.00000091,0.00001350,-0.000
 02048,-0.00002625,0.00000334,0.00005576,-0.00010432,-0.00002663,-0.000
 75335,0.00015086,-0.00059248,-0.00067106,-0.00117945,-0.00020581,-0.00
 013128,0.00001366,0.00007987,0.00006260,0.00008472,0.00015000,0.000370
 54,-0.00025397,-0.00002457,0.00125589,-0.00051151,0.00064864,0.0003816
 6,-0.00034316,-0.00002807,-0.00010945,-0.00003430,-0.00012073,0.000124
 22,-0.00008944,0.00000736,0.00009347,-0.00004240,-0.00019289,-0.000055
 54,0.00005160,-0.00002297,-0.00003567,0.00005876,-0.00000944,-0.000100
 95,0.00003167,0.00018294,-0.00004665,0.00004578,0.00004244,-0.00009629
 ,0.00010924,0.00003640,0.00002649,-0.00003189,-0.00002175,0.00008334,-
 0.00000406,0.00008439,-0.00007482,0.00004665,0.00000518,-0.00000665,0.
 00001707,0.00001172,0.00003190,0.00003010,-0.00001979,-0.00003928,0.00
 000504,0.00002979,-0.00023022,-0.00359199,-0.01073990,0.00816376,-0.06
 020286,-0.31483986,-0.00197263,0.00050484,0.00083076,0.00020106,0.0004
 9039,0.00057714,0.00039787,-0.00013933,-0.00140159,0.00005121,-0.00390
 024,-0.01164612,-0.00746291,0.06856872,0.33787807,0.,0.,0.,0.,0.,0.,0.
 00007049,0.00007194,-0.00001046,-0.00004511,-0.00010602,-0.00003842,0.
 ,0.,0.,-0.00012992,0.00003469,0.00005045,0.00020280,0.00007745,-0.0000
 3123,0.,0.,0.,0.00018461,-0.00007890,-0.00003766,-0.00018762,0.0001221
 1,-0.00011019,-0.00003578,-0.00024622,-0.00027860,0.00009289,0.0001540
 2,0.00001385,0.00001113,-0.00002063,-0.00003657,-0.00025168,0.00014147
 ,-0.00023113,-0.00011612,0.00011236,0.00023005,0.00002191,-0.00001590,
 -0.00021511,0.00036278,0.00026284,-0.00041594,-0.00035623,-0.00000652,
 0.00006763,0.00009640,0.00001284,-0.00003129,-0.00013353,0.00011965,0.
 00026226,-0.00000662,-0.00000392,-0.00000010,0.00025142,-0.00035582,0.
 00039103,0.00024569,0.00015552,-0.00016509,-0.00003460,-0.00035682,0.0
 0022034,-0.00002217,-0.00002641,-0.00000032,0.00053551,-0.00017407,0.0
 0245045,-0.00344057,-0.00014654,0.00032619,-0.04800027,-0.02069972,-0.
 01168179,0.00325913,-0.00222461,-0.00412035,-0.00093301,0.00054108,-0.
 00036312,-0.00955951,-0.02058330,-0.00707084,-0.00832109,-0.00995043,-
 0.01060590,0.00046125,0.00020596,0.00027715,0.00006935,0.00022562,-0.0
 0003587,0.00094694,0.00106772,0.00089910,0.00112876,0.00082970,-0.0005
 7858,0.00019334,0.00004065,0.00017950,0.00031601,0.00007297,-0.0001171
 0,0.00001928,0.00011377,-0.00013319,-0.00074507,-0.00001841,-0.0004072
 8,-0.00000109,-0.00011864,0.00011153,-0.00002715,0.00013924,0.00000948
 ,0.00011426,0.00009583,-0.00003209,0.00006282,-0.00000499,0.00008998,0
 .00004251,-0.00000694,-0.00005735,-0.00001285,0.00001738,0.00000529,0.
 00003501,0.00005336,0.00000161,-0.00000067,-0.00003013,0.00001928,0.00
 000767,-0.00000509,0.00001220,0.00001214,-0.00003090,-0.00004682,0.000
 01556,-0.00003576,0.00001318,-0.00038673,-0.00012429,-0.00013088,0.000
 12259,0.00004614,0.00007548,0.00003659,-0.00002372,-0.00001005,0.00007
 442,0.00004102,0.00000841,0.00002192,-0.00004917,-0.00001420,-0.000136
 70,-0.00012387,0.00006259,0.00000551,-0.00005585,0.00003650,-0.0004085
 9,0.00016946,0.00007405,-0.00039001,-0.00067377,0.00013102,-0.00001200
 ,-0.00017430,-0.00001031,-0.00033984,-0.00006713,-0.00029810,0.0001016
 5,-0.00003180,-0.00025547,0.00005112,-0.00003160,0.00041518,0.00015650
 ,0.00043969,0.00056234,0.06472762,0.,0.,0.,0.,0.,0.,0.00013153,0.00012
 151,-0.00002284,-0.00009432,-0.00021056,-0.00007003,0.,0.,0.,-0.000184
 13,0.00005689,0.00010404,0.00031045,0.00015221,-0.00006707,0.,0.,0.,0.
 00009876,-0.00004276,0.00012198,-0.00026120,0.00017040,-0.00012411,-0.
 00020524,-0.00042427,-0.00064247,0.00030504,0.00030015,-0.00007271,-0.
 00003384,-0.00003897,-0.00002600,-0.00077358,0.00056774,-0.00032157,0.
 00014188,-0.00002527,0.00049682,-0.00000990,0.00001173,-0.00018607,0.0
 0061268,0.00059747,-0.00083485,-0.00058138,-0.00027775,0.00020825,0.00
 005792,0.00018280,-0.00017224,-0.00026671,0.00026401,0.00053713,-0.000
 00081,-0.00000881,0.00001833,0.00052467,-0.00034431,-0.00009604,0.0001
 9371,-0.00006595,-0.00008741,0.00000468,-0.00067075,0.00046270,-0.0000
 5805,-0.00004279,-0.00005069,0.00202596,-0.00127472,0.00500417,-0.0230
 5332,-0.01080075,-0.00187284,-0.01990144,-0.04820611,-0.01068374,0.001
 53238,-0.00713627,-0.01314009,0.00150073,-0.00053198,0.00011038,-0.002
 01734,-0.00196280,-0.00171418,-0.01138906,-0.01277182,-0.01404239,-0.0
 0022281,0.00013689,-0.00011404,-0.00027265,0.00001857,-0.00015582,0.00
 043981,-0.00191678,-0.00052482,0.00090796,0.00166405,-0.00010042,-0.00
 014682,-0.00028736,0.00057706,0.00093212,-0.00051488,-0.00008504,0.000
 14524,0.00012841,0.00034571,-0.00027669,-0.00086376,0.00040528,-0.0000
 9686,-0.00037040,0.00037181,0.00004402,0.00016757,-0.00001900,-0.00001
 267,0.00006475,-0.00008087,-0.00014435,-0.00016742,-0.00002548,0.00021
 437,0.00040193,0.00000505,-0.00006692,-0.00009000,0.00002844,0.0000491
 4,0.00000822,-0.00001923,-0.00001402,-0.00001024,-0.00002433,-0.000019
 60,0.00002190,0.00006449,-0.00001202,-0.00003543,-0.00004060,0.0000288
 4,-0.00007374,0.00000083,-0.00058659,-0.00004506,-0.00021290,0.0003750
 0,-0.00014854,-0.00001710,0.00004540,-0.00013017,0.00001182,0.00005772
 ,0.00007352,-0.00001536,-0.00000079,-0.00007911,0.00011762,-0.00016672
 ,-0.00020254,-0.00007998,-0.00027595,0.00015437,-0.00002159,0.00006839
 ,0.00023375,0.00038932,-0.00021279,-0.00045942,-0.00007153,-0.00015870
 ,-0.00030741,-0.00002634,-0.00026404,-0.00054210,-0.00007790,-0.000100
 99,0.00004078,0.00002784,-0.00003316,0.00002924,0.00023696,0.00031709,
 0.00028462,0.00027060,0.05097470,0.08442431,0.,0.,0.,0.,0.,0.,0.000076
 82,0.00006965,-0.00001200,-0.00006733,-0.00013841,-0.00003767,0.,0.,0.
 ,-0.00020043,0.00005066,0.00000758,0.00015737,0.00004877,-0.00004041,0
 .,0.,0.,0.00007919,-0.00003131,0.00005551,-0.00015250,0.00009454,-0.00
 006372,-0.00014986,-0.00030943,-0.00035896,0.00025105,0.00018347,-0.00
 012511,-0.00005516,-0.00002575,0.00002276,-0.00049065,0.00027034,-0.00
 013861,0.00007500,-0.00003598,0.00031178,-0.00001817,0.00000272,-0.000
 07624,0.00022601,0.00016115,-0.00033680,-0.00033310,0.00007136,0.00001
 596,0.00010130,-0.00002748,-0.00002540,-0.00014353,0.00019050,0.000327
 76,-0.00000239,0.00001257,0.00001673,0.00026303,-0.00021595,-0.0001715
 3,0.00012294,0.00003307,-0.00014311,0.00011579,-0.00029572,0.00014928,
 -0.00000158,-0.00000124,0.00000743,0.00121719,-0.00048096,0.00280448,-
 0.01793401,-0.00871229,-0.00475629,-0.01364218,-0.01318267,-0.03448308
 ,0.00171669,-0.00690946,-0.00691593,0.00006198,-0.00001423,0.00058598,
 -0.00696324,-0.01453927,-0.00466966,0.00381512,0.00387158,0.00577134,0
 .00005230,0.00026980,0.00010419,-0.00008383,-0.00014172,-0.00012955,0.
 00067360,-0.00035373,0.00012318,-0.00039461,0.00066145,0.00065622,0.00
 040447,0.00039474,-0.00027562,-0.00035175,0.00038951,-0.00033039,-0.00
 008076,0.00007076,-0.00014532,-0.00029560,0.00054738,-0.00127173,0.000
 05556,0.00016014,-0.00006324,-0.00003528,0.00018884,0.00005600,0.00014
 892,0.00005869,-0.00010525,0.00014339,0.00001510,0.00011240,-0.0002857
 1,-0.00002391,0.00004962,0.00006431,0.00004226,-0.00000158,0.00004427,
 0.00000059,-0.00001139,0.00000772,0.00007593,-0.00003953,0.00000133,0.
 00002398,-0.00001417,-0.00004629,0.00000006,-0.00000761,0.00000543,-0.
 00003433,0.00002683,0.00008731,0.00001738,0.00011612,-0.00000098,-0.00
 005836,-0.00004192,0.00000810,-0.00004245,0.00002243,-0.00000312,0.000
 03537,-0.00001321,-0.00000097,-0.00001522,-0.00001181,0.00001886,-0.00
 004116,0.00001408,0.00004691,0.00004099,0.00001022,-0.00031308,-0.0004
 5924,-0.00147185,-0.00042168,0.00000873,-0.00080073,0.00030490,0.00029
 523,-0.00013851,0.00104179,0.00084397,-0.00073713,-0.00009861,0.000008
 45,0.00013136,0.00003315,0.00011535,0.00010274,0.00035250,0.00019284,-
 0.00037527,0.03095690,0.03650204,0.04699924\\0.,0.,0.,0.,0.,0.,0.,0.,0
 .,0.,0.,0.,0.,0.,0.,0.,0.00000002,0.,-0.00000001,0.,0.00000002,0.,0.,0
 .,0.,0.,0.,0.,0.00000003,0.,0.,0.00000001,-0.00000002,0.,0.,0.,0.00000
 002,-0.00000001,0.00000001,0.,0.00000001,0.00000001,0.00000003,-0.0000
 0002,0.,0.,0.00000002,0.,0.,0.,0.00000002,0.,0.00000001,0.,0.,-0.00000
 001,0.,0.,0.,0.,0.,0.,0.,0.,0.,0.,0.,0.,0.,0.00000002,0.,0.,-0.0000000
 2,0.,0.,-0.00000004,0.,0.,0.,-0.00000002,-0.00000001,0.,0.,0.,0.000000
 02,-0.00000002,0.,0.,0.,0.,0.,0.,0.,0.,0.,0.,0.,0.,0.,0.,0.,0.,0.,0.,0
 .,0.,0.,0.,0.,0.,0.,0.,0.,0.,0.00000001,-0.00000002,0.,0.,0.,0.,0.,0.,
 0.,0.,0.,0.,0.,0.,0.,0.,0.00000001,0.,0.00000003,-0.00000001,0.,0.,0.,
 0.,0.,0.,0.,-0.00000002,0.00000002,0.,0.,0.,0.,0.00000002,-0.00000001,
 0.,0.,0.,0.,0.,0.00000001,-0.00000001,-0.00000001,0.00000002,-0.000000
 01,0.,0.,0.,0.,-0.00000002,0.,0.00000002,0.,0.00000001,0.,-0.00000001,
 0.,0.,0.,0.,-0.00000001,0.,0.,0.,-0.00000001,0.,0.,0.,0.,0.,0.,0.,0.,0
 .,0.,0.,0.,0.,0.,0.,0.,0.,0.,0.\\\@


 ERWIN WITH HIS PSI CAN DO
 CALCULATIONS QUITE A FEW.
 BUT ONE THING HAS NOT BEEN SEEN
 JUST WHAT DOES PSI REALLY MEAN.
 -- WALTER HUCKEL, TRANS. BY FELIX BLOCH
 Job cpu time:       1 days 15 hours 56 minutes 52.0 seconds.
 Elapsed time:       0 days  0 hours 38 minutes  8.3 seconds.
 File lengths (MBytes):  RWF=   7452 Int=      0 D2E=      0 Chk=     58 Scr=      2
 Normal termination of Gaussian 16 at Thu Mar  9 03:40:22 2023.
