 Entering Gaussian System, Link 0=g16
 Input=5_test_opt_freq_from_IRC.com
 Output=5_test_opt_freq_from_IRC.log
 Initial command:
 /opt/ohpc/pub/apps/gaussian/avx2/g16/l1.exe "/scratch/g16-tmp/Gau-1882393.inp" -scrdir="/scratch/g16-tmp/"
 Entering Link 1 = /opt/ohpc/pub/apps/gaussian/avx2/g16/l1.exe PID=   1882394.
  
 Copyright (c) 1988-2017, Gaussian, Inc.  All Rights Reserved.
  
 This is part of the Gaussian(R) 16 program.  It is based on
 the Gaussian(R) 09 system (copyright 2009, Gaussian, Inc.),
 the Gaussian(R) 03 system (copyright 2003, Gaussian, Inc.),
 the Gaussian(R) 98 system (copyright 1998, Gaussian, Inc.),
 the Gaussian(R) 94 system (copyright 1995, Gaussian, Inc.),
 the Gaussian 92(TM) system (copyright 1992, Gaussian, Inc.),
 the Gaussian 90(TM) system (copyright 1990, Gaussian, Inc.),
 the Gaussian 88(TM) system (copyright 1988, Gaussian, Inc.),
 the Gaussian 86(TM) system (copyright 1986, Carnegie Mellon
 University), and the Gaussian 82(TM) system (copyright 1983,
 Carnegie Mellon University). Gaussian is a federally registered
 trademark of Gaussian, Inc.
  
 This software contains proprietary and confidential information,
 including trade secrets, belonging to Gaussian, Inc.
  
 This software is provided under written license and may be
 used, copied, transmitted, or stored only in accord with that
 written license.
  
 The following legend is applicable only to US Government
 contracts under FAR:
  
                    RESTRICTED RIGHTS LEGEND
  
 Use, reproduction and disclosure by the US Government is
 subject to restrictions as set forth in subparagraphs (a)
 and (c) of the Commercial Computer Software - Restricted
 Rights clause in FAR 52.227-19.
  
 Gaussian, Inc.
 340 Quinnipiac St., Bldg. 40, Wallingford CT 06492
  
  
 ---------------------------------------------------------------
 Warning -- This program may not be used in any manner that
 competes with the business of Gaussian, Inc. or will provide
 assistance to any competitor of Gaussian, Inc.  The licensee
 of this program is prohibited from giving any competitor of
 Gaussian, Inc. access to this program.  By using this program,
 the user acknowledges that Gaussian, Inc. is engaged in the
 business of creating and licensing software in the field of
 computational chemistry and represents and warrants to the
 licensee that it is not a competitor of Gaussian, Inc. and that
 it will not use this program in any manner prohibited above.
 ---------------------------------------------------------------
  

 Cite this work as:
 Gaussian 16, Revision B.01,
 M. J. Frisch, G. W. Trucks, H. B. Schlegel, G. E. Scuseria, 
 M. A. Robb, J. R. Cheeseman, G. Scalmani, V. Barone, 
 G. A. Petersson, H. Nakatsuji, X. Li, M. Caricato, A. V. Marenich, 
 J. Bloino, B. G. Janesko, R. Gomperts, B. Mennucci, H. P. Hratchian, 
 J. V. Ortiz, A. F. Izmaylov, J. L. Sonnenberg, D. Williams-Young, 
 F. Ding, F. Lipparini, F. Egidi, J. Goings, B. Peng, A. Petrone, 
 T. Henderson, D. Ranasinghe, V. G. Zakrzewski, J. Gao, N. Rega, 
 G. Zheng, W. Liang, M. Hada, M. Ehara, K. Toyota, R. Fukuda, 
 J. Hasegawa, M. Ishida, T. Nakajima, Y. Honda, O. Kitao, H. Nakai, 
 T. Vreven, K. Throssell, J. A. Montgomery, Jr., J. E. Peralta, 
 F. Ogliaro, M. J. Bearpark, J. J. Heyd, E. N. Brothers, K. N. Kudin, 
 V. N. Staroverov, T. A. Keith, R. Kobayashi, J. Normand, 
 K. Raghavachari, A. P. Rendell, J. C. Burant, S. S. Iyengar, 
 J. Tomasi, M. Cossi, J. M. Millam, M. Klene, C. Adamo, R. Cammi, 
 J. W. Ochterski, R. L. Martin, K. Morokuma, O. Farkas, 
 J. B. Foresman, and D. J. Fox, Gaussian, Inc., Wallingford CT, 2016.
 
 ******************************************
 Gaussian 16:  ES64L-G16RevB.01 20-Dec-2017
                 8-Mar-2023 
 ******************************************
 %nprocshared=64
 Will use up to   64 processors via shared memory.
 %mem=64GB
 %chk=5_test_opt_freq_from_IRC.chk
 ----------------------------------------------------------------------
 # opt=(calcall,tight,cartesian) freq ucam-b3lyp/gen nosymm scf=(qc,max
 cycle=1024,vshift=100) pseudo=read
 ----------------------------------------------------------------------
 1/7=10,10=4,18=10,26=3,38=1/1,3;
 2/12=2,15=1,17=6,18=5,29=2,40=1/2;
 3/5=7,11=2,16=1,17=8,25=1,30=1,71=2,74=-40,116=2,140=1/1,2,3;
 4//1;
 5/5=2,7=1024,8=3,10=100,38=5/8;
 8/6=4,10=90,11=11/1;
 11/6=1,8=1,9=11,15=111,16=1,31=1/1,2,10;
 10/6=1,31=1/2;
 6/7=2,8=2,9=2,10=2,18=1,28=1/1;
 7/7=1,10=1,25=1,30=1/1,2,3,16;
 1/7=10,10=4,18=10,26=3/3(3);
 2/15=1,29=1/2;
 7/7=1,8=1,9=1,25=1,30=1,44=-1/16;
 99/12=1/99;
 2/15=1,29=1/2;
 3/5=7,6=1,11=2,16=1,17=8,25=1,30=1,71=2,74=-40,82=7,116=2,140=1/1,2,3;
 4/5=5,16=3,69=1/1;
 5/5=2,7=1024,8=3,10=100,38=5/8;
 8/6=4,10=90,11=11/1;
 11/6=1,8=1,9=11,15=111,16=1,31=1/1,2,10;
 10/6=1,31=1/2;
 7/7=1,10=1,25=1,30=1/1,2,3,16;
 1/7=10,10=4,18=10,26=3/3(-8);
 2/15=1,29=1/2;
 6/7=2,8=2,9=2,10=2,18=1,19=2,28=1/1;
 7/7=1,8=1,9=1,25=1,30=1,44=-1/16;
 99/12=1/99;
 ------------------------
 5_test_opt_freq_from_IRC
 ------------------------
 Symbolic Z-matrix:
 Charge =  0 Multiplicity = 4
 Li                   -1   -1.129    -6.26626  -3.4263 
 N                    -1   -0.79951  -4.83441  -2.24362 
 C                    0    -2.03644  -4.79558  -1.66268 
 Cl                   0    -3.20028  -6.0204   -2.10263 
 N                    -1    1.78819   1.3929   -2.445 
 C                    0     2.78787   0.51008  -2.20032 
 Cl                   0     4.43081   0.83365  -2.64343 
 N                    -1   -3.84958   0.80834   1.1023 
 C                    0    -4.05638   0.86803  -0.23218 
 Cl                   0    -5.47757   1.57225  -0.92536 
 N                    0    -0.94124  -3.0682   -0.86973 
 C                    0    -2.13813  -3.72602  -0.82487 
 Cl                   0    -3.47759  -3.23493   0.1126 
 N                    0    -2.08893  -0.1194    0.02259 
 C                    0    -2.99779   0.30292  -0.90119 
 Cl                   0    -2.78336   0.06625  -2.59963 
 N                    0     0.94907  -0.42077  -1.38358 
 C                    0     2.28921  -0.59573  -1.55654 
 Cl                   0     3.12021  -2.02081  -1.05386 
 C                    0    -0.18484  -3.76294  -1.72464 
 H                    0     0.82826  -3.47813  -1.96827 
 C                    0    -2.66973   0.21153   1.20383 
 H                    0    -2.19777  -0.02657   2.14703 
 C                    0     0.71433   0.78276  -1.94525 
 H                    0    -0.28267   1.19774  -1.98606 
 Co                   0    -0.40378  -1.24066  -0.05181 
 C                    0     1.35371  -0.32922   2.07212 
 C                    0     0.64032   0.59674   3.06199 
 O                    0     0.39821  -1.24937   1.65432 
 C                    0     2.55292  -1.03542   2.69588 
 H                    0    -0.24546   1.04157   2.61574 
 H                    0     0.37821   0.0739    3.97935 
 H                    0     3.00499  -1.69555   1.95325 
 H                    0     2.22384  -1.64077   3.54491 
 H                    0     3.309    -0.32536   3.0425 
 H                    0     1.71665   0.28765   1.22933 
 N                    0     1.78668   4.52131  -0.1345 
 C                    0     1.48146   5.31219   1.13055 
 C                    0     2.48004   6.37831   1.55766 
 H                    0     1.35298   4.56955   1.91917 
 H                    0     0.51349   5.78706   0.95899 
 H                    0     2.14541   6.75369   2.52799 
 H                    0     3.49305   6.00002   1.68789 
 H                    0     2.50622   7.22942   0.8752 
 C                    0     2.43407   5.41067  -1.17414 
 C                    0     2.87319   4.71891  -2.45594 
 H                    0     3.29511   5.87611  -0.69946 
 H                    0     1.70595   6.19938  -1.38036 
 H                    0     3.19434   5.49854  -3.15135 
 H                    0     3.71998   4.05036  -2.29449 
 H                    0     2.09117   4.13288  -2.93735 
 C                    0     0.45692   4.0266   -0.70661 
 C                    0    -0.41997   3.22755   0.24139 
 H                    0     0.71465   3.41773  -1.57141 
 H                    0    -0.06184   4.9272   -1.04376 
 H                    0    -1.33904   2.97579  -0.29407 
 H                    0     0.03274   2.27998   0.53103 
 H                    0    -0.70881   3.77712   1.13832 
 C                    0     2.6469    3.30114   0.1569 
 C                    0     4.05027   3.5664    0.66763 
 H                    0     2.66049   2.72822  -0.76886 
 H                    0     2.10365   2.72402   0.90223 
 H                    0     4.56266   2.60183   0.6873 
 H                    0     4.63452   4.22635   0.02249 
 H                    0     4.05927   3.95237   1.68785 
 Br                   0     1.74677   2.14849   3.64104 
 C                    0    -0.6011   -2.96316   3.31953 
 O                    0    -0.24841  -2.38498   4.27085 
 O                    0    -1.0011   -3.62165   2.44645 
 

 GradGradGradGradGradGradGradGradGradGradGradGradGradGradGradGradGradGrad
 Berny optimization.
 Initialization pass.
 No Z-matrix variables, so optimization will use Cartesian coordinates.
 Trust Radius=3.00D-01 FncErr=1.00D-07 GrdErr=1.00D-06 EigMax=2.50D+02 EigMin=1.00D-04
 Number of steps in this run=    217 maximum allowed number of steps=    414.
 GradGradGradGradGradGradGradGradGradGradGradGradGradGradGradGradGradGrad

 Symmetry turned off by external request.
 Stoichiometry    C21H29BrCl6CoLiN7O3(4)
 Framework group  C1[X(C21H29BrCl6CoLiN7O3)]
 Deg. of freedom   201
 Full point group                 C1      NOp   1
                          Input orientation:                          
 ---------------------------------------------------------------------
 Center     Atomic      Atomic             Coordinates (Angstroms)
 Number     Number       Type             X           Y           Z
 ---------------------------------------------------------------------
      1          3           0       -1.128999   -6.266260   -3.426304
      2          7           0       -0.799505   -4.834405   -2.243624
      3          6           0       -2.036439   -4.795576   -1.662681
      4         17           0       -3.200276   -6.020396   -2.102629
      5          7           0        1.788188    1.392895   -2.444999
      6          6           0        2.787868    0.510082   -2.200315
      7         17           0        4.430813    0.833646   -2.643429
      8          7           0       -3.849583    0.808336    1.102303
      9          6           0       -4.056376    0.868030   -0.232175
     10         17           0       -5.477570    1.572246   -0.925358
     11          7           0       -0.941237   -3.068199   -0.869731
     12          6           0       -2.138126   -3.726023   -0.824868
     13         17           0       -3.477588   -3.234927    0.112600
     14          7           0       -2.088933   -0.119395    0.022588
     15          6           0       -2.997794    0.302924   -0.901189
     16         17           0       -2.783360    0.066252   -2.599628
     17          7           0        0.949071   -0.420767   -1.383578
     18          6           0        2.289210   -0.595727   -1.556540
     19         17           0        3.120215   -2.020808   -1.053860
     20          6           0       -0.184835   -3.762936   -1.724635
     21          1           0        0.828263   -3.478129   -1.968266
     22          6           0       -2.669730    0.211527    1.203825
     23          1           0       -2.197766   -0.026567    2.147026
     24          6           0        0.714326    0.782764   -1.945245
     25          1           0       -0.282672    1.197740   -1.986058
     26         27           0       -0.403777   -1.240655   -0.051813
     27          6           0        1.353710   -0.329218    2.072122
     28          6           0        0.640324    0.596741    3.061990
     29          8           0        0.398208   -1.249367    1.654315
     30          6           0        2.552918   -1.035419    2.695878
     31          1           0       -0.245463    1.041568    2.615740
     32          1           0        0.378206    0.073896    3.979349
     33          1           0        3.004987   -1.695554    1.953253
     34          1           0        2.223839   -1.640772    3.544913
     35          1           0        3.308999   -0.325363    3.042501
     36          1           0        1.716647    0.287653    1.229329
     37          7           0        1.786680    4.521309   -0.134502
     38          6           0        1.481457    5.312185    1.130545
     39          6           0        2.480042    6.378307    1.557664
     40          1           0        1.352978    4.569548    1.919168
     41          1           0        0.513493    5.787058    0.958986
     42          1           0        2.145415    6.753690    2.527990
     43          1           0        3.493046    6.000016    1.687885
     44          1           0        2.506216    7.229421    0.875203
     45          6           0        2.434065    5.410667   -1.174145
     46          6           0        2.873187    4.718908   -2.455935
     47          1           0        3.295108    5.876108   -0.699457
     48          1           0        1.705946    6.199380   -1.380355
     49          1           0        3.194338    5.498543   -3.151345
     50          1           0        3.719979    4.050357   -2.294490
     51          1           0        2.091169    4.132875   -2.937350
     52          6           0        0.456919    4.026604   -0.706613
     53          6           0       -0.419970    3.227548    0.241390
     54          1           0        0.714647    3.417727   -1.571405
     55          1           0       -0.061842    4.927204   -1.043758
     56          1           0       -1.339044    2.975787   -0.294073
     57          1           0        0.032738    2.279983    0.531033
     58          1           0       -0.708809    3.777121    1.138323
     59          6           0        2.646896    3.301141    0.156896
     60          6           0        4.050272    3.566399    0.667630
     61          1           0        2.660488    2.728221   -0.768860
     62          1           0        2.103650    2.724022    0.902233
     63          1           0        4.562663    2.601831    0.687295
     64          1           0        4.634524    4.226354    0.022493
     65          1           0        4.059269    3.952372    1.687852
     66         35           0        1.746766    2.148489    3.641037
     67          6           0       -0.601102   -2.963157    3.319529
     68          8           0       -0.248413   -2.384975    4.270846
     69          8           0       -1.001102   -3.621645    2.446454
 ---------------------------------------------------------------------
 Rotational constants (GHZ):           0.0763933           0.0416647           0.0402245
 General basis read from cards:  (5D, 7F)
 ======================================================================================================
                                       Pseudopotential Parameters
 ======================================================================================================
  Center     Atomic      Valence      Angular      Power
  Number     Number     Electrons     Momentum     of R      Exponent        Coefficient   SO-Coeffient
 ======================================================================================================
    1          3
                                   No pseudopotential on this center.
    2          7
                                   No pseudopotential on this center.
    3          6
                                   No pseudopotential on this center.
    4         17
                                   No pseudopotential on this center.
    5          7
                                   No pseudopotential on this center.
    6          6
                                   No pseudopotential on this center.
    7         17
                                   No pseudopotential on this center.
    8          7
                                   No pseudopotential on this center.
    9          6
                                   No pseudopotential on this center.
   10         17
                                   No pseudopotential on this center.
   11          7
                                   No pseudopotential on this center.
   12          6
                                   No pseudopotential on this center.
   13         17
                                   No pseudopotential on this center.
   14          7
                                   No pseudopotential on this center.
   15          6
                                   No pseudopotential on this center.
   16         17
                                   No pseudopotential on this center.
   17          7
                                   No pseudopotential on this center.
   18          6
                                   No pseudopotential on this center.
   19         17
                                   No pseudopotential on this center.
   20          6
                                   No pseudopotential on this center.
   21          1
                                   No pseudopotential on this center.
   22          6
                                   No pseudopotential on this center.
   23          1
                                   No pseudopotential on this center.
   24          6
                                   No pseudopotential on this center.
   25          1
                                   No pseudopotential on this center.
   26         27           17
                                      D and up 
                                                     1      434.1076104      -10.00000000    0.00000000
                                                     2       78.8402758      -66.72402760    0.00000000
                                                     2       19.6037749      -11.71922430    0.00000000
                                      S - D
                                                     0      151.2307582        3.00000000    0.00000000
                                                     1      169.6790026       20.15531100    0.00000000
                                                     2       64.9909423      413.37622440    0.00000000
                                                     2       12.5076287      133.87277050    0.00000000
                                      P - D
                                                     0       92.7319924        5.00000000    0.00000000
                                                     1      121.1910183        6.18923530    0.00000000
                                                     2       48.6265909      326.32159190    0.00000000
                                                     2       11.9966971       73.87889700    0.00000000
   27          6
                                   No pseudopotential on this center.
   28          6
                                   No pseudopotential on this center.
   29          8
                                   No pseudopotential on this center.
   30          6
                                   No pseudopotential on this center.
   31          1
                                   No pseudopotential on this center.
   32          1
                                   No pseudopotential on this center.
   33          1
                                   No pseudopotential on this center.
   34          1
                                   No pseudopotential on this center.
   35          1
                                   No pseudopotential on this center.
   36          1
                                   No pseudopotential on this center.
   37          7
                                   No pseudopotential on this center.
   38          6
                                   No pseudopotential on this center.
   39          6
                                   No pseudopotential on this center.
   40          1
                                   No pseudopotential on this center.
   41          1
                                   No pseudopotential on this center.
   42          1
                                   No pseudopotential on this center.
   43          1
                                   No pseudopotential on this center.
   44          1
                                   No pseudopotential on this center.
   45          6
                                   No pseudopotential on this center.
   46          6
                                   No pseudopotential on this center.
   47          1
                                   No pseudopotential on this center.
   48          1
                                   No pseudopotential on this center.
   49          1
                                   No pseudopotential on this center.
   50          1
                                   No pseudopotential on this center.
   51          1
                                   No pseudopotential on this center.
   52          6
                                   No pseudopotential on this center.
   53          6
                                   No pseudopotential on this center.
   54          1
                                   No pseudopotential on this center.
   55          1
                                   No pseudopotential on this center.
   56          1
                                   No pseudopotential on this center.
   57          1
                                   No pseudopotential on this center.
   58          1
                                   No pseudopotential on this center.
   59          6
                                   No pseudopotential on this center.
   60          6
                                   No pseudopotential on this center.
   61          1
                                   No pseudopotential on this center.
   62          1
                                   No pseudopotential on this center.
   63          1
                                   No pseudopotential on this center.
   64          1
                                   No pseudopotential on this center.
   65          1
                                   No pseudopotential on this center.
   66         35
                                   No pseudopotential on this center.
   67          6
                                   No pseudopotential on this center.
   68          8
                                   No pseudopotential on this center.
   69          8
                                   No pseudopotential on this center.
 ======================================================================================================
   751 basis functions,  1546 primitive gaussians,   793 cartesian basis functions
   194 alpha electrons      191 beta electrons
       nuclear repulsion energy      7673.7580973847 Hartrees.
 NAtoms=   69 NActive=   69 NUniq=   69 SFac= 1.00D+00 NAtFMM=   60 NAOKFM=T Big=T
 Integral buffers will be    131072 words long.
 Raffenetti 2 integral format.
 Two-electron integral symmetry is turned off.
 One-electron integrals computed using PRISM.
   1 Symmetry operations used in ECPInt.
 ECPInt:  NShTT=   35245 NPrTT=  210561 LenC2=   26576 LenP2D=   81734.
 LDataN:  DoStor=T MaxTD1= 4 Len=   56
 NBasis=   751 RedAO= T EigKep=  1.37D-03  NBF=   751
 NBsUse=   751 1.00D-06 EigRej= -1.00D+00 NBFU=   751
 ExpMin= 2.30D-02 ExpMax= 5.74D+05 ExpMxC= 5.74D+03 IAcc=3 IRadAn=         5 AccDes= 0.00D+00
 Harris functional with IExCor=20419 and IRadAn=       5 diagonalized for initial guess.
 HarFok:  IExCor=20419 AccDes= 0.00D+00 IRadAn=         5 IDoV= 1 UseB2=F ITyADJ=14
 ICtDFT=  3500011 ScaDFX=  1.000000  1.000000  1.000000  1.000000
 FoFCou: FMM=F IPFlag=           0 FMFlag=      100000 FMFlg1=        2001
         NFxFlg=           0 DoJE=T BraDBF=F KetDBF=T FulRan=T
         wScrn=  0.000000 ICntrl=       500 IOpCl=  0 I1Cent=   200000004 NGrid=           0
         NMat0=    1 NMatS0=      1 NMatT0=    0 NMatD0=    1 NMtDS0=    0 NMtDT0=    0
 Symmetry not used in FoFCou.
 Initial guess <Sx>= 0.0000 <Sy>= 0.0000 <Sz>= 1.5000 <S**2>= 3.7500 S= 1.5000
 Gradient too large for Newton-Raphson -- use scaled steepest descent instead.
 Gradient too large for Newton-Raphson -- use scaled steepest descent instead.
     Accept linear search using points  2 and  3.
 Gradient too large for Newton-Raphson -- use scaled steepest descent instead.
     Accept linear search using points  1 and  2.
 Gradient too large for Newton-Raphson -- use scaled steepest descent instead.
     Accept linear search using points  4 and  5.
 Gradient too large for Newton-Raphson -- use scaled steepest descent instead.
     Accept linear search using points  1 and  2.
 Gradient too large for Newton-Raphson -- use scaled steepest descent instead.
     Accept linear search using points  2 and  3.
 Gradient too large for Newton-Raphson -- use scaled steepest descent instead.
 Restarting incremental Fock formation.
     Accept linear search using points  1 and  2.
 Gradient too large for Newton-Raphson -- use scaled steepest descent instead.
 Gradient too large for Newton-Raphson -- use scaled steepest descent instead.
     Accept linear search using points  1 and  2.
 Gradient too large for Newton-Raphson -- use scaled steepest descent instead.
     Accept linear search using points  1 and  2.
 Gradient too large for Newton-Raphson -- use scaled steepest descent instead.
 Gradient too large for Newton-Raphson -- use scaled steepest descent instead.
     Minimum is close to point  2 DX=  3.53D-02 DF= -2.26D-04 DXR=  6.59D-02 DFR=  4.36D-03 which will be used.
 Gradient too large for Newton-Raphson -- use scaled steepest descent instead.
 Gradient too large for Newton-Raphson -- use scaled steepest descent instead.
 Restarting incremental Fock formation.
     Minimum is close to point  2 DX=  4.30D-02 DF= -1.26D-04 DXR=  6.69D-02 DFR=  4.50D-03 which will be used.
 Gradient too large for Newton-Raphson -- use scaled steepest descent instead.
 Gradient too large for Newton-Raphson -- use scaled steepest descent instead.
     Accept linear search using points  1 and  2.
 Gradient too large for Newton-Raphson -- use scaled steepest descent instead.
     Accept linear search using points  2 and  3.
 Gradient too large for Newton-Raphson -- use scaled steepest descent instead.
     Accept linear search using points  1 and  2.
 Gradient too large for Newton-Raphson -- use scaled steepest descent instead.
     Accept linear search using points  2 and  3.
 Gradient too large for Newton-Raphson -- use scaled steepest descent instead.
     Accept linear search using points  1 and  2.
 Gradient too large for Newton-Raphson -- use scaled steepest descent instead.
     Minimum is close to point  3 DX=  9.09D-02 DF= -4.23D-06 DXR=  5.38D-02 DFR=  2.92D-03 which will be used.
 Gradient too large for Newton-Raphson -- use scaled steepest descent instead.
     Accept linear search using points  1 and  2.
 Restarting incremental Fock formation.
 Gradient too large for Newton-Raphson -- use scaled steepest descent instead.
     Accept linear search using points  2 and  3.
 Gradient too large for Newton-Raphson -- use scaled steepest descent instead.
     Accept linear search using points  1 and  2.
 Gradient too large for Newton-Raphson -- use scaled steepest descent instead.
     Accept linear search using points  2 and  3.
     Minimum is close to point  3 DX= -4.20D-02 DF= -3.47D-07 DXR=  2.39D-02 DFR=  4.70D-04 which will be used.
 Gradient too large for Newton-Raphson -- use scaled steepest descent instead.
     Accept linear search using points  1 and  2.
 Gradient too large for Newton-Raphson -- use scaled steepest descent instead.
     Accept linear search using points  2 and  3.
     Minimum is close to point  3 DX= -1.12D-01 DF= -2.46D-06 DXR=  6.29D-02 DFR=  3.98D-03 which will be used.
 Gradient too large for Newton-Raphson -- use scaled steepest descent instead.
     Minimum is close to point  3 DX= -9.84D-03 DF= -2.50D-07 DXR=  2.01D-02 DFR=  4.03D-04 which will be used.
 Gradient too large for Newton-Raphson -- use scaled steepest descent instead.
     Accept linear search using points  2 and  3.
 Gradient too large for Newton-Raphson -- use scaled steepest descent instead.
     Accept linear search using points  1 and  2.
 Gradient too large for Newton-Raphson -- use scaled steepest descent instead.
 Restarting incremental Fock formation.
     Minimum is close to point  3 DX=  9.39D-02 DF= -1.10D-06 DXR=  4.96D-02 DFR=  2.47D-03 which will be used.
 Gradient too large for Newton-Raphson -- use scaled steepest descent instead.
     Accept linear search using points  1 and  2.
 Gradient too large for Newton-Raphson -- use scaled steepest descent instead.
     Accept linear search using points  2 and  3.
 Gradient too large for Newton-Raphson -- use scaled steepest descent instead.
     Accept linear search using points  1 and  2.
 LinEq1:  Iter=  0 NonCon=     1 RMS=4.90D-05 Max=9.60D-03 NDo=     1
 AX will form     1 AO Fock derivatives at one time.
 LinEq1:  Iter=  1 NonCon=     1 RMS=4.07D-05 Max=4.93D-03 NDo=     1
 LinEq1:  Iter=  2 NonCon=     1 RMS=7.16D-06 Max=1.06D-03 NDo=     1
 LinEq1:  Iter=  3 NonCon=     1 RMS=2.79D-06 Max=2.56D-04 NDo=     1
 LinEq1:  Iter=  4 NonCon=     1 RMS=2.38D-06 Max=3.36D-04 NDo=     1
 LinEq1:  Iter=  5 NonCon=     1 RMS=1.18D-06 Max=1.09D-04 NDo=     1
 LinEq1:  Iter=  6 NonCon=     1 RMS=1.03D-06 Max=9.38D-05 NDo=     1
 LinEq1:  Iter=  7 NonCon=     1 RMS=4.79D-07 Max=3.62D-05 NDo=     1
 LinEq1:  Iter=  8 NonCon=     1 RMS=3.48D-07 Max=3.86D-05 NDo=     1
 LinEq1:  Iter=  9 NonCon=     1 RMS=2.82D-07 Max=2.56D-05 NDo=     1
 LinEq1:  Iter= 10 NonCon=     1 RMS=1.77D-07 Max=1.89D-05 NDo=     1
 LinEq1:  Iter= 11 NonCon=     1 RMS=1.13D-07 Max=1.05D-05 NDo=     1
 LinEq1:  Iter= 12 NonCon=     1 RMS=5.96D-08 Max=7.16D-06 NDo=     1
 LinEq1:  Iter= 13 NonCon=     1 RMS=3.71D-08 Max=3.91D-06 NDo=     1
 LinEq1:  Iter= 14 NonCon=     1 RMS=2.58D-08 Max=2.76D-06 NDo=     1
 LinEq1:  Iter= 15 NonCon=     1 RMS=1.52D-08 Max=1.56D-06 NDo=     1
 LinEq1:  Iter= 16 NonCon=     1 RMS=1.09D-08 Max=1.10D-06 NDo=     1
 LinEq1:  Iter= 17 NonCon=     1 RMS=6.15D-09 Max=8.32D-07 NDo=     1
 LinEq1:  Iter= 18 NonCon=     1 RMS=3.82D-09 Max=5.09D-07 NDo=     1
 LinEq1:  Iter= 19 NonCon=     0 RMS=2.75D-09 Max=2.92D-07 NDo=     1
 Linear equations converged to 4.637D-08 4.637D-07 after    19 iterations.
     Accept linear search using points  1 and  2.
 LinEq1:  Iter=  0 NonCon=     1 RMS=1.07D-05 Max=8.59D-04 NDo=     1
 LinEq1:  Iter=  1 NonCon=     1 RMS=9.72D-06 Max=9.80D-04 NDo=     1
 LinEq1:  Iter=  2 NonCon=     1 RMS=5.58D-06 Max=6.37D-04 NDo=     1
 LinEq1:  Iter=  3 NonCon=     1 RMS=4.84D-06 Max=3.65D-04 NDo=     1
 LinEq1:  Iter=  4 NonCon=     1 RMS=2.41D-06 Max=2.12D-04 NDo=     1
 LinEq1:  Iter=  5 NonCon=     1 RMS=1.91D-06 Max=1.55D-04 NDo=     1
 LinEq1:  Iter=  6 NonCon=     1 RMS=1.42D-06 Max=1.40D-04 NDo=     1
 LinEq1:  Iter=  7 NonCon=     1 RMS=9.40D-07 Max=1.36D-04 NDo=     1
 LinEq1:  Iter=  8 NonCon=     1 RMS=5.37D-07 Max=5.19D-05 NDo=     1
 LinEq1:  Iter=  9 NonCon=     1 RMS=3.60D-07 Max=2.94D-05 NDo=     1
 LinEq1:  Iter= 10 NonCon=     1 RMS=2.18D-07 Max=1.33D-05 NDo=     1
 LinEq1:  Iter= 11 NonCon=     1 RMS=1.38D-07 Max=1.09D-05 NDo=     1
 LinEq1:  Iter= 12 NonCon=     1 RMS=8.68D-08 Max=9.41D-06 NDo=     1
 LinEq1:  Iter= 13 NonCon=     1 RMS=6.23D-08 Max=6.25D-06 NDo=     1
 LinEq1:  Iter= 14 NonCon=     1 RMS=3.69D-08 Max=4.60D-06 NDo=     1
 LinEq1:  Iter= 15 NonCon=     1 RMS=2.17D-08 Max=1.82D-06 NDo=     1
 LinEq1:  Iter= 16 NonCon=     1 RMS=1.42D-08 Max=1.31D-06 NDo=     1
 LinEq1:  Iter= 17 NonCon=     1 RMS=9.54D-09 Max=8.10D-07 NDo=     1
 LinEq1:  Iter= 18 NonCon=     1 RMS=6.09D-09 Max=6.95D-07 NDo=     1
 LinEq1:  Iter= 19 NonCon=     1 RMS=4.42D-09 Max=4.37D-07 NDo=     1
 LinEq1:  Iter= 20 NonCon=     0 RMS=2.24D-09 Max=1.45D-07 NDo=     1
 Linear equations converged to 4.119D-08 4.119D-07 after    20 iterations.
     Minimum is close to point  2 DX=  2.00D-03 DF= -1.03D-10 DXR=  2.00D-03 DFR=  4.00D-06 which will be used.
 LinEq1:  Iter=  0 NonCon=     1 RMS=5.27D-08 Max=7.09D-06 NDo=     1
 LinEq1:  Iter=  1 NonCon=     1 RMS=4.02D-08 Max=4.24D-06 NDo=     1
 LinEq1:  Iter=  2 NonCon=     1 RMS=2.66D-08 Max=3.45D-06 NDo=     1
 LinEq1:  Iter=  3 NonCon=     1 RMS=1.65D-08 Max=1.18D-06 NDo=     1
 LinEq1:  Iter=  4 NonCon=     1 RMS=1.07D-08 Max=7.45D-07 NDo=     1
 LinEq1:  Iter=  5 NonCon=     1 RMS=7.56D-09 Max=6.23D-07 NDo=     1
 LinEq1:  Iter=  6 NonCon=     1 RMS=5.77D-09 Max=5.14D-07 NDo=     1
 LinEq1:  Iter=  7 NonCon=     1 RMS=4.62D-09 Max=5.31D-07 NDo=     1
 LinEq1:  Iter=  8 NonCon=     1 RMS=3.24D-09 Max=3.14D-07 NDo=     1
 LinEq1:  Iter=  9 NonCon=     1 RMS=1.90D-09 Max=1.57D-07 NDo=     1
 LinEq1:  Iter= 10 NonCon=     1 RMS=1.34D-09 Max=9.44D-08 NDo=     1
 LinEq1:  Iter= 11 NonCon=     1 RMS=9.60D-10 Max=8.95D-08 NDo=     1
 LinEq1:  Iter= 12 NonCon=     1 RMS=6.57D-10 Max=5.84D-08 NDo=     1
 LinEq1:  Iter= 13 NonCon=     1 RMS=4.05D-10 Max=3.55D-08 NDo=     1
 LinEq1:  Iter= 14 NonCon=     1 RMS=2.48D-10 Max=2.19D-08 NDo=     1
 LinEq1:  Iter= 15 NonCon=     1 RMS=1.41D-10 Max=1.40D-08 NDo=     1
 LinEq1:  Iter= 16 NonCon=     1 RMS=9.74D-11 Max=6.02D-09 NDo=     1
 LinEq1:  Iter= 17 NonCon=     1 RMS=6.20D-11 Max=5.27D-09 NDo=     1
 LinEq1:  Iter= 18 NonCon=     1 RMS=3.87D-11 Max=3.24D-09 NDo=     1
 LinEq1:  Iter= 19 NonCon=     0 RMS=2.35D-11 Max=2.14D-09 NDo=     1
 Linear equations converged to 2.259D-10 2.259D-09 after    19 iterations.
 SCF Done:  E(UCAM-B3LYP) =  -6911.23106326     a.u. after   38 cycles
            Convg  =    0.3577D-07                   152 Fock formations.
              S**2 =  3.7555                  -V/T =  2.0106
 <Sx>= 0.0000 <Sy>= 0.0000 <Sz>= 1.5000 <S**2>= 3.7555 S= 1.5014
 <L.S>=  0.00000000000    
 Annihilation of the first spin contaminant:
 S**2 before annihilation     3.7555,   after     3.7500
 DoSCS=F DFT=T ScalE2(SS,OS)=  1.000000  1.000000
 Range of M.O.s used for correlation:     1   751
 NBasis=   751 NAE=   194 NBE=   191 NFC=     0 NFV=     0
 NROrb=    751 NOA=   194 NOB=   191 NVA=   557 NVB=   560
   1 Symmetry operations used in ECPInt.
 ECPInt:  NShTT=   35245 NPrTT=  210561 LenC2=   26576 LenP2D=   81734.
 LDataN:  DoStor=T MaxTD1= 5 Len=  102
 Number of processors reduced to  11 by ecpmxn.
 Symmetrizing basis deriv contribution to polar:
 IMax=3 JMax=2 DiffMx= 0.00D+00
 G2DrvN: will do    35 centers at a time, making    2 passes.
 Calling FoFCou, ICntrl=  3107 FMM=T I1Cent=   0 AccDes= 0.00D+00.
 Calling FoFCou, ICntrl=  3107 FMM=T I1Cent=   0 AccDes= 0.00D+00.
 End of G2Drv F.D. properties file   721 does not exist.
 End of G2Drv F.D. properties file   722 does not exist.
 End of G2Drv F.D. properties file   788 does not exist.
          IDoAtm=00110110111111111111111111111111111111111111111111
          IDoAtm=1111111111111111111
          Differentiating once with respect to electric field.
                with respect to dipole field.
          Differentiating once with respect to nuclear coordinates.
 CalDSu exits because no D1Ps are significant.
          There are   198 degrees of freedom in the 1st order CPHF.  IDoFFX=6 NUNeed=     3.
    198 vectors produced by pass  0 Test12= 2.15D-13 1.00D-09 XBig12= 3.81D+02 2.25D+00.
 AX will form    96 AO Fock derivatives at one time.
    198 vectors produced by pass  1 Test12= 2.15D-13 1.00D-09 XBig12= 5.17D+01 7.80D-01.
    198 vectors produced by pass  2 Test12= 2.15D-13 1.00D-09 XBig12= 1.49D+00 1.22D-01.
    198 vectors produced by pass  3 Test12= 2.15D-13 1.00D-09 XBig12= 5.11D-02 2.46D-02.
    198 vectors produced by pass  4 Test12= 2.15D-13 1.00D-09 XBig12= 5.92D-04 2.87D-03.
    198 vectors produced by pass  5 Test12= 2.15D-13 1.00D-09 XBig12= 6.39D-06 2.19D-04.
    153 vectors produced by pass  6 Test12= 2.15D-13 1.00D-09 XBig12= 6.67D-08 1.51D-05.
     87 vectors produced by pass  7 Test12= 2.15D-13 1.00D-09 XBig12= 6.06D-10 1.92D-06.
     31 vectors produced by pass  8 Test12= 2.15D-13 1.00D-09 XBig12= 5.73D-12 1.69D-07.
      3 vectors produced by pass  9 Test12= 2.15D-13 1.00D-09 XBig12= 6.05D-14 1.31D-08.
      3 vectors produced by pass 10 Test12= 2.15D-13 1.00D-09 XBig12= 7.80D-16 1.31D-09.
 InvSVY:  IOpt=1 It=  1 EMax= 1.56D-14
 Solved reduced A of dimension  1465 with   198 vectors.
 Isotropic polarizability for W=    0.000000      367.04 Bohr**3.
 End of Minotr F.D. properties file   721 does not exist.
 End of Minotr F.D. properties file   722 does not exist.
 End of Minotr F.D. properties file   788 does not exist.

 **********************************************************************

            Population analysis using the SCF Density.

 **********************************************************************

 Alpha  occ. eigenvalues -- -482.71515-101.64825-101.59583-101.59276-101.58893
 Alpha  occ. eigenvalues -- -101.57649-101.55917 -61.79714 -56.36676 -56.36377
 Alpha  occ. eigenvalues --  -56.36355 -19.26043 -19.26010 -19.14297 -14.55494
 Alpha  occ. eigenvalues --  -14.42115 -14.41920 -14.39657 -14.37949 -14.37300
 Alpha  occ. eigenvalues --  -14.34274 -10.42014 -10.34571 -10.34491 -10.33682
 Alpha  occ. eigenvalues --  -10.33208 -10.33198 -10.32155 -10.31303 -10.30632
 Alpha  occ. eigenvalues --  -10.30139 -10.29737 -10.28483 -10.28392 -10.28105
 Alpha  occ. eigenvalues --  -10.27974 -10.27887 -10.27816 -10.27658 -10.26965
 Alpha  occ. eigenvalues --  -10.25575 -10.20906  -9.58069  -9.52737  -9.52425
 Alpha  occ. eigenvalues --   -9.52111  -9.50804  -9.49176  -8.57903  -7.34436
 Alpha  occ. eigenvalues --   -7.33601  -7.33454  -7.29228  -7.28865  -7.28534
 Alpha  occ. eigenvalues --   -7.28142  -7.28140  -7.27872  -7.27850  -7.27563
 Alpha  occ. eigenvalues --   -7.27537  -7.27234  -7.26247  -7.26241  -7.25602
 Alpha  occ. eigenvalues --   -7.24618  -7.24600  -6.59551  -6.58473  -6.58440
 Alpha  occ. eigenvalues --   -3.90399  -2.71722  -2.71423  -2.71397  -2.70542
 Alpha  occ. eigenvalues --   -2.70542  -2.61062  -2.59977  -2.59164  -2.13975
 Alpha  occ. eigenvalues --   -1.19891  -1.15473  -1.12202  -1.10717  -1.07390
 Alpha  occ. eigenvalues --   -1.05032  -1.01638  -0.99003  -0.95876  -0.94505
 Alpha  occ. eigenvalues --   -0.93355  -0.92300  -0.91087  -0.90960  -0.90577
 Alpha  occ. eigenvalues --   -0.89799  -0.89154  -0.88195  -0.86390  -0.85842
 Alpha  occ. eigenvalues --   -0.84358  -0.79602  -0.78374  -0.76928  -0.76607
 Alpha  occ. eigenvalues --   -0.76339  -0.74653  -0.74047  -0.72558  -0.67910
 Alpha  occ. eigenvalues --   -0.67267  -0.64870  -0.63774  -0.62419  -0.62196
 Alpha  occ. eigenvalues --   -0.61799  -0.61509  -0.61089  -0.60053  -0.59251
 Alpha  occ. eigenvalues --   -0.59029  -0.58904  -0.57840  -0.56565  -0.55323
 Alpha  occ. eigenvalues --   -0.54755  -0.54478  -0.54428  -0.53928  -0.53762
 Alpha  occ. eigenvalues --   -0.52957  -0.52686  -0.52501  -0.51305  -0.50853
 Alpha  occ. eigenvalues --   -0.50124  -0.49722  -0.49594  -0.49061  -0.48942
 Alpha  occ. eigenvalues --   -0.48527  -0.48260  -0.48002  -0.47742  -0.47463
 Alpha  occ. eigenvalues --   -0.47335  -0.47301  -0.46988  -0.46047  -0.45832
 Alpha  occ. eigenvalues --   -0.45727  -0.45403  -0.45062  -0.44939  -0.44341
 Alpha  occ. eigenvalues --   -0.44198  -0.43864  -0.43643  -0.43407  -0.43251
 Alpha  occ. eigenvalues --   -0.42975  -0.42273  -0.42050  -0.41148  -0.40476
 Alpha  occ. eigenvalues --   -0.40376  -0.39963  -0.39218  -0.38974  -0.38918
 Alpha  occ. eigenvalues --   -0.38643  -0.38376  -0.38123  -0.37646  -0.37139
 Alpha  occ. eigenvalues --   -0.36752  -0.36314  -0.35986  -0.35750  -0.34533
 Alpha  occ. eigenvalues --   -0.34008  -0.33293  -0.33233  -0.32747  -0.32525
 Alpha  occ. eigenvalues --   -0.31837  -0.29959  -0.29251  -0.27752  -0.27476
 Alpha  occ. eigenvalues --   -0.27291  -0.26611  -0.24646  -0.22381
 Alpha virt. eigenvalues --   -0.04249   0.01568   0.02386   0.06258   0.06391
 Alpha virt. eigenvalues --    0.06788   0.07038   0.07961   0.08224   0.08880
 Alpha virt. eigenvalues --    0.09503   0.10065   0.10130   0.11127   0.11243
 Alpha virt. eigenvalues --    0.11789   0.12219   0.12398   0.12891   0.13101
 Alpha virt. eigenvalues --    0.13174   0.13329   0.13496   0.13637   0.13707
 Alpha virt. eigenvalues --    0.13971   0.14224   0.14693   0.14836   0.15235
 Alpha virt. eigenvalues --    0.15585   0.15925   0.16003   0.16205   0.16516
 Alpha virt. eigenvalues --    0.17206   0.18118   0.18195   0.18589   0.19362
 Alpha virt. eigenvalues --    0.19651   0.19800   0.20517   0.21138   0.21836
 Alpha virt. eigenvalues --    0.22008   0.22480   0.22541   0.23458   0.23837
 Alpha virt. eigenvalues --    0.23945   0.24229   0.24645   0.24843   0.25372
 Alpha virt. eigenvalues --    0.25554   0.25677   0.26392   0.26724   0.27019
 Alpha virt. eigenvalues --    0.27434   0.28084   0.28293   0.28744   0.29222
 Alpha virt. eigenvalues --    0.29851   0.30530   0.31270   0.31885   0.32432
 Alpha virt. eigenvalues --    0.33146   0.33697   0.34036   0.34467   0.34979
 Alpha virt. eigenvalues --    0.35735   0.36794   0.38928   0.39827   0.40837
 Alpha virt. eigenvalues --    0.41794   0.41836   0.42524   0.43068   0.43465
 Alpha virt. eigenvalues --    0.43543   0.44613   0.45300   0.46008   0.46913
 Alpha virt. eigenvalues --    0.47427   0.47689   0.48152   0.48439   0.48822
 Alpha virt. eigenvalues --    0.48964   0.49605   0.49862   0.50116   0.50362
 Alpha virt. eigenvalues --    0.50645   0.51023   0.51442   0.51865   0.52237
 Alpha virt. eigenvalues --    0.52483   0.52997   0.53348   0.53698   0.54081
 Alpha virt. eigenvalues --    0.54485   0.55414   0.55624   0.55817   0.56020
 Alpha virt. eigenvalues --    0.56556   0.56766   0.57016   0.57099   0.58083
 Alpha virt. eigenvalues --    0.58584   0.58724   0.59541   0.60102   0.60270
 Alpha virt. eigenvalues --    0.60601   0.61638   0.62185   0.62608   0.63083
 Alpha virt. eigenvalues --    0.63284   0.63861   0.63958   0.64188   0.64759
 Alpha virt. eigenvalues --    0.65072   0.65366   0.65475   0.66190   0.66615
 Alpha virt. eigenvalues --    0.67109   0.67296   0.67777   0.67987   0.68754
 Alpha virt. eigenvalues --    0.69579   0.69838   0.70110   0.70293   0.70854
 Alpha virt. eigenvalues --    0.71109   0.71597   0.72055   0.72420   0.72918
 Alpha virt. eigenvalues --    0.73190   0.73757   0.74108   0.74579   0.75189
 Alpha virt. eigenvalues --    0.75847   0.76241   0.76453   0.77145   0.77502
 Alpha virt. eigenvalues --    0.78426   0.78646   0.79175   0.79402   0.80183
 Alpha virt. eigenvalues --    0.81075   0.81312   0.81823   0.82163   0.83398
 Alpha virt. eigenvalues --    0.84356   0.84723   0.84893   0.85109   0.85480
 Alpha virt. eigenvalues --    0.86302   0.87462   0.87765   0.87840   0.88138
 Alpha virt. eigenvalues --    0.88845   0.89325   0.89703   0.89817   0.89952
 Alpha virt. eigenvalues --    0.90182   0.90775   0.91175   0.91724   0.91779
 Alpha virt. eigenvalues --    0.92122   0.92433   0.92801   0.93057   0.93351
 Alpha virt. eigenvalues --    0.93679   0.93849   0.93937   0.94095   0.94259
 Alpha virt. eigenvalues --    0.94560   0.94805   0.95301   0.95386   0.95989
 Alpha virt. eigenvalues --    0.96105   0.96393   0.96894   0.97291   0.97551
 Alpha virt. eigenvalues --    0.97879   0.98061   0.98217   0.98582   0.99116
 Alpha virt. eigenvalues --    0.99524   0.99750   1.00534   1.00582   1.01214
 Alpha virt. eigenvalues --    1.01437   1.01765   1.02019   1.02434   1.02608
 Alpha virt. eigenvalues --    1.03166   1.03460   1.03887   1.04384   1.04754
 Alpha virt. eigenvalues --    1.05277   1.05394   1.05459   1.05879   1.06727
 Alpha virt. eigenvalues --    1.06976   1.07400   1.07945   1.08078   1.08571
 Alpha virt. eigenvalues --    1.09337   1.09530   1.09829   1.09986   1.10548
 Alpha virt. eigenvalues --    1.11526   1.12096   1.12337   1.12973   1.13252
 Alpha virt. eigenvalues --    1.13912   1.14061   1.14571   1.14895   1.15507
 Alpha virt. eigenvalues --    1.15792   1.16248   1.17038   1.17685   1.18457
 Alpha virt. eigenvalues --    1.19216   1.19966   1.20296   1.20949   1.21346
 Alpha virt. eigenvalues --    1.22125   1.22668   1.22830   1.24437   1.24954
 Alpha virt. eigenvalues --    1.25561   1.26480   1.26718   1.27100   1.28621
 Alpha virt. eigenvalues --    1.29582   1.31468   1.32457   1.33557   1.35062
 Alpha virt. eigenvalues --    1.35927   1.37413   1.37946   1.38322   1.38951
 Alpha virt. eigenvalues --    1.40673   1.41550   1.42228   1.42601   1.43441
 Alpha virt. eigenvalues --    1.43990   1.44888   1.45295   1.46489   1.46899
 Alpha virt. eigenvalues --    1.48263   1.48438   1.49139   1.49851   1.50154
 Alpha virt. eigenvalues --    1.50304   1.51226   1.51368   1.51880   1.52693
 Alpha virt. eigenvalues --    1.53168   1.53748   1.54023   1.54293   1.56297
 Alpha virt. eigenvalues --    1.57015   1.57655   1.59707   1.60104   1.60984
 Alpha virt. eigenvalues --    1.61964   1.62416   1.62836   1.64895   1.65403
 Alpha virt. eigenvalues --    1.66103   1.66769   1.67341   1.67541   1.68591
 Alpha virt. eigenvalues --    1.68915   1.69862   1.70476   1.70774   1.72092
 Alpha virt. eigenvalues --    1.72611   1.72982   1.73275   1.74090   1.75123
 Alpha virt. eigenvalues --    1.75417   1.76802   1.76956   1.77561   1.78990
 Alpha virt. eigenvalues --    1.79700   1.80620   1.82185   1.83824   1.84269
 Alpha virt. eigenvalues --    1.85403   1.86607   1.87580   1.87647   1.88682
 Alpha virt. eigenvalues --    1.89695   1.91372   1.92926   1.93858   1.94283
 Alpha virt. eigenvalues --    1.96193   1.96393   1.96641   1.97912   1.98684
 Alpha virt. eigenvalues --    1.99939   2.00188   2.00601   2.02404   2.03595
 Alpha virt. eigenvalues --    2.04258   2.04783   2.05679   2.07490   2.07752
 Alpha virt. eigenvalues --    2.08578   2.08726   2.09146   2.09250   2.09769
 Alpha virt. eigenvalues --    2.10871   2.11071   2.11655   2.12037   2.12586
 Alpha virt. eigenvalues --    2.12828   2.13060   2.13640   2.13906   2.14240
 Alpha virt. eigenvalues --    2.14719   2.15403   2.15839   2.15903   2.16093
 Alpha virt. eigenvalues --    2.16834   2.17009   2.17309   2.17861   2.18466
 Alpha virt. eigenvalues --    2.18776   2.19293   2.20118   2.20553   2.21077
 Alpha virt. eigenvalues --    2.21313   2.21900   2.22396   2.23006   2.23645
 Alpha virt. eigenvalues --    2.24418   2.25260   2.25990   2.26532   2.27522
 Alpha virt. eigenvalues --    2.28013   2.28469   2.28890   2.29453   2.30868
 Alpha virt. eigenvalues --    2.32103   2.32897   2.33068   2.33572   2.34249
 Alpha virt. eigenvalues --    2.34555   2.35307   2.35720   2.36494   2.37056
 Alpha virt. eigenvalues --    2.37637   2.38239   2.38586   2.39473   2.40638
 Alpha virt. eigenvalues --    2.41148   2.41394   2.42507   2.43121   2.43710
 Alpha virt. eigenvalues --    2.44468   2.45123   2.45344   2.47440   2.48659
 Alpha virt. eigenvalues --    2.49564   2.50104   2.51375   2.51726   2.52495
 Alpha virt. eigenvalues --    2.53945   2.54172   2.57945   2.59558   2.63370
 Alpha virt. eigenvalues --    2.65416   2.66057   2.66797   2.67033   2.67230
 Alpha virt. eigenvalues --    2.68426   2.68853   2.69284   2.69432   2.69938
 Alpha virt. eigenvalues --    2.70163   2.71207   2.71528   2.72064   2.72380
 Alpha virt. eigenvalues --    2.73149   2.73439   2.74184   2.75202   2.75591
 Alpha virt. eigenvalues --    2.76487   2.77485   2.77942   2.78366   2.78927
 Alpha virt. eigenvalues --    2.79529   2.80009   2.80617   2.82811   2.82918
 Alpha virt. eigenvalues --    2.83818   2.85682   2.86315   2.86859   2.87329
 Alpha virt. eigenvalues --    2.87656   2.88586   2.88944   2.90026   2.90834
 Alpha virt. eigenvalues --    2.91581   2.92077   2.92344   2.92804   2.93688
 Alpha virt. eigenvalues --    2.93815   2.94066   2.95032   2.95683   2.96061
 Alpha virt. eigenvalues --    2.96122   2.96789   2.98099   2.98848   2.99521
 Alpha virt. eigenvalues --    3.00376   3.00793   3.01661   3.01870   3.02242
 Alpha virt. eigenvalues --    3.02535   3.05438   3.07679   3.08013   3.08644
 Alpha virt. eigenvalues --    3.09618   3.16910   3.21519   3.24611   3.25223
 Alpha virt. eigenvalues --    3.26611   3.27351   3.29059   3.31575   3.33104
 Alpha virt. eigenvalues --    3.34513   3.36577   3.36834   3.38821   3.40582
 Alpha virt. eigenvalues --    3.43455   3.45048   3.46236   3.48793   3.49996
 Alpha virt. eigenvalues --    3.50284   3.50786   3.52381   3.55350   3.56336
 Alpha virt. eigenvalues --    3.57630   3.58593   3.58940   3.59894   3.61370
 Alpha virt. eigenvalues --    3.62549   3.64323   3.65092   3.65335   3.68025
 Alpha virt. eigenvalues --    6.80256   8.62682
  Beta  occ. eigenvalues -- -482.71515-101.64824-101.59582-101.59275-101.58892
  Beta  occ. eigenvalues -- -101.57648-101.55916 -61.79714 -56.36676 -56.36377
  Beta  occ. eigenvalues --  -56.36355 -19.26039 -19.26011 -19.13936 -14.55494
  Beta  occ. eigenvalues --  -14.42108 -14.41809 -14.39530 -14.37810 -14.37295
  Beta  occ. eigenvalues --  -14.34268 -10.42014 -10.34571 -10.34491 -10.33676
  Beta  occ. eigenvalues --  -10.33205 -10.33198 -10.32154 -10.31293 -10.30632
  Beta  occ. eigenvalues --  -10.30128 -10.29737 -10.28483 -10.28385 -10.28105
  Beta  occ. eigenvalues --  -10.27974 -10.27888 -10.27807 -10.27644 -10.26965
  Beta  occ. eigenvalues --  -10.25563 -10.20897  -9.58068  -9.52736  -9.52424
  Beta  occ. eigenvalues --   -9.52110  -9.50803  -9.49175  -8.57902  -7.34434
  Beta  occ. eigenvalues --   -7.33600  -7.33453  -7.29226  -7.28864  -7.28532
  Beta  occ. eigenvalues --   -7.28141  -7.28139  -7.27872  -7.27850  -7.27562
  Beta  occ. eigenvalues --   -7.27536  -7.27232  -7.26247  -7.26239  -7.25600
  Beta  occ. eigenvalues --   -7.24616  -7.24599  -6.59550  -6.58473  -6.58440
  Beta  occ. eigenvalues --   -3.75067  -2.71721  -2.71423  -2.71396  -2.70542
  Beta  occ. eigenvalues --   -2.70542  -2.43761  -2.43681  -2.43580  -2.13974
  Beta  occ. eigenvalues --   -1.19889  -1.15471  -1.12202  -1.10643  -1.07301
  Beta  occ. eigenvalues --   -1.04919  -1.00924  -0.98955  -0.95850  -0.94447
  Beta  occ. eigenvalues --   -0.93333  -0.92254  -0.91011  -0.90906  -0.90577
  Beta  occ. eigenvalues --   -0.89798  -0.89154  -0.88114  -0.86313  -0.85748
  Beta  occ. eigenvalues --   -0.84358  -0.79567  -0.78225  -0.76928  -0.76604
  Beta  occ. eigenvalues --   -0.76300  -0.74652  -0.73992  -0.72526  -0.67910
  Beta  occ. eigenvalues --   -0.67171  -0.64802  -0.63677  -0.62372  -0.62110
  Beta  occ. eigenvalues --   -0.61775  -0.61399  -0.61002  -0.60052  -0.59222
  Beta  occ. eigenvalues --   -0.58905  -0.58794  -0.57837  -0.56441  -0.55203
  Beta  occ. eigenvalues --   -0.54724  -0.54427  -0.54372  -0.53786  -0.53579
  Beta  occ. eigenvalues --   -0.52780  -0.52598  -0.52213  -0.51261  -0.50847
  Beta  occ. eigenvalues --   -0.49751  -0.49586  -0.49078  -0.48907  -0.48828
  Beta  occ. eigenvalues --   -0.48469  -0.48218  -0.47877  -0.47534  -0.47373
  Beta  occ. eigenvalues --   -0.47282  -0.46934  -0.45895  -0.45785  -0.45757
  Beta  occ. eigenvalues --   -0.45491  -0.45067  -0.44263  -0.44179  -0.43810
  Beta  occ. eigenvalues --   -0.43514  -0.43281  -0.43211  -0.42418  -0.42244
  Beta  occ. eigenvalues --   -0.40827  -0.40581  -0.40449  -0.40244  -0.39807
  Beta  occ. eigenvalues --   -0.39566  -0.39472  -0.38932  -0.38842  -0.38516
  Beta  occ. eigenvalues --   -0.37653  -0.37234  -0.37034  -0.36051  -0.35915
  Beta  occ. eigenvalues --   -0.35514  -0.34215  -0.33764  -0.33301  -0.32731
  Beta  occ. eigenvalues --   -0.32708  -0.32501  -0.31640  -0.30062  -0.29400
  Beta  occ. eigenvalues --   -0.29102  -0.27510  -0.27099  -0.26575  -0.24654
  Beta  occ. eigenvalues --   -0.22373
  Beta virt. eigenvalues --   -0.04251   0.01488   0.02285   0.03029   0.04233
  Beta virt. eigenvalues --    0.04472   0.06345   0.06609   0.06894   0.07219
  Beta virt. eigenvalues --    0.07997   0.08309   0.09199   0.09537   0.10186
  Beta virt. eigenvalues --    0.10550   0.11325   0.11439   0.12081   0.12321
  Beta virt. eigenvalues --    0.12502   0.13014   0.13167   0.13212   0.13511
  Beta virt. eigenvalues --    0.13671   0.13691   0.13866   0.14138   0.14293
  Beta virt. eigenvalues --    0.14750   0.14887   0.15445   0.15645   0.15974
  Beta virt. eigenvalues --    0.16043   0.16266   0.16539   0.17233   0.18176
  Beta virt. eigenvalues --    0.18307   0.18605   0.19427   0.19792   0.19852
  Beta virt. eigenvalues --    0.20602   0.21291   0.22038   0.22136   0.22544
  Beta virt. eigenvalues --    0.22788   0.23681   0.23981   0.24274   0.24414
  Beta virt. eigenvalues --    0.24987   0.25269   0.25620   0.25751   0.26031
  Beta virt. eigenvalues --    0.26495   0.26802   0.27108   0.27549   0.28127
  Beta virt. eigenvalues --    0.28310   0.28786   0.29418   0.30010   0.30551
  Beta virt. eigenvalues --    0.31518   0.31933   0.32632   0.33444   0.33789
  Beta virt. eigenvalues --    0.34175   0.34547   0.35082   0.35974   0.37200
  Beta virt. eigenvalues --    0.39004   0.39927   0.40927   0.41851   0.41932
  Beta virt. eigenvalues --    0.42711   0.43106   0.43511   0.43612   0.44744
  Beta virt. eigenvalues --    0.45504   0.46098   0.46999   0.47488   0.47826
  Beta virt. eigenvalues --    0.48177   0.48480   0.48838   0.49007   0.49654
  Beta virt. eigenvalues --    0.49893   0.50165   0.50384   0.50663   0.51053
  Beta virt. eigenvalues --    0.51480   0.51937   0.52263   0.52520   0.53022
  Beta virt. eigenvalues --    0.53396   0.53741   0.54095   0.54531   0.55467
  Beta virt. eigenvalues --    0.55645   0.55845   0.56056   0.56645   0.56864
  Beta virt. eigenvalues --    0.57109   0.57197   0.58116   0.58624   0.58768
  Beta virt. eigenvalues --    0.59600   0.60134   0.60320   0.60669   0.61741
  Beta virt. eigenvalues --    0.62316   0.62712   0.63128   0.63334   0.63906
  Beta virt. eigenvalues --    0.64002   0.64347   0.64818   0.65160   0.65438
  Beta virt. eigenvalues --    0.65544   0.66291   0.66659   0.67177   0.67357
  Beta virt. eigenvalues --    0.67818   0.68033   0.68808   0.69646   0.69907
  Beta virt. eigenvalues --    0.70166   0.70350   0.70903   0.71160   0.71708
  Beta virt. eigenvalues --    0.72173   0.72538   0.73040   0.73281   0.73881
  Beta virt. eigenvalues --    0.74293   0.74636   0.75252   0.75927   0.76433
  Beta virt. eigenvalues --    0.76535   0.77321   0.77588   0.78449   0.78763
  Beta virt. eigenvalues --    0.79214   0.79625   0.80279   0.81139   0.81367
  Beta virt. eigenvalues --    0.81943   0.82290   0.83536   0.84372   0.84895
  Beta virt. eigenvalues --    0.85047   0.85278   0.85573   0.86361   0.87530
  Beta virt. eigenvalues --    0.87790   0.87894   0.88218   0.88872   0.89518
  Beta virt. eigenvalues --    0.89793   0.89927   0.90083   0.90407   0.90835
  Beta virt. eigenvalues --    0.91199   0.91776   0.91931   0.92195   0.92557
  Beta virt. eigenvalues --    0.92938   0.93207   0.93399   0.93727   0.93862
  Beta virt. eigenvalues --    0.94013   0.94147   0.94311   0.94770   0.94924
  Beta virt. eigenvalues --    0.95420   0.95426   0.96030   0.96206   0.96535
  Beta virt. eigenvalues --    0.96953   0.97382   0.97675   0.97927   0.98175
  Beta virt. eigenvalues --    0.98265   0.98764   0.99178   0.99587   0.99860
  Beta virt. eigenvalues --    1.00622   1.01021   1.01333   1.01716   1.01908
  Beta virt. eigenvalues --    1.02109   1.02704   1.03031   1.03223   1.03705
  Beta virt. eigenvalues --    1.03978   1.04423   1.04860   1.05433   1.05548
  Beta virt. eigenvalues --    1.05775   1.06067   1.06891   1.07031   1.07882
  Beta virt. eigenvalues --    1.08314   1.08433   1.08702   1.09420   1.09804
  Beta virt. eigenvalues --    1.10054   1.10255   1.10847   1.11642   1.12218
  Beta virt. eigenvalues --    1.12559   1.13072   1.13497   1.14022   1.14552
  Beta virt. eigenvalues --    1.14794   1.15118   1.15918   1.16302   1.16480
  Beta virt. eigenvalues --    1.17190   1.17870   1.18659   1.19320   1.20079
  Beta virt. eigenvalues --    1.20420   1.21062   1.21562   1.22303   1.22816
  Beta virt. eigenvalues --    1.22988   1.24542   1.25182   1.25760   1.26777
  Beta virt. eigenvalues --    1.26926   1.27713   1.28759   1.29835   1.31646
  Beta virt. eigenvalues --    1.32682   1.33706   1.35081   1.36054   1.37527
  Beta virt. eigenvalues --    1.38019   1.38379   1.39212   1.40760   1.41643
  Beta virt. eigenvalues --    1.42264   1.42689   1.43495   1.44100   1.45014
  Beta virt. eigenvalues --    1.45469   1.46516   1.46978   1.48299   1.48497
  Beta virt. eigenvalues --    1.49217   1.49913   1.50238   1.50432   1.51321
  Beta virt. eigenvalues --    1.51415   1.51960   1.52707   1.53213   1.53816
  Beta virt. eigenvalues --    1.54154   1.54361   1.56352   1.57113   1.57782
  Beta virt. eigenvalues --    1.59769   1.60156   1.61082   1.62021   1.62513
  Beta virt. eigenvalues --    1.62847   1.64920   1.65489   1.66143   1.66822
  Beta virt. eigenvalues --    1.67377   1.67565   1.68670   1.68962   1.69956
  Beta virt. eigenvalues --    1.70545   1.70881   1.72227   1.72795   1.73126
  Beta virt. eigenvalues --    1.73302   1.74287   1.75163   1.75519   1.76841
  Beta virt. eigenvalues --    1.77008   1.77701   1.79173   1.79848   1.80748
  Beta virt. eigenvalues --    1.82313   1.83933   1.84345   1.85529   1.86631
  Beta virt. eigenvalues --    1.87649   1.87755   1.88706   1.89938   1.91385
  Beta virt. eigenvalues --    1.92937   1.93944   1.94293   1.96253   1.96452
  Beta virt. eigenvalues --    1.96649   1.97972   1.98708   2.00007   2.00228
  Beta virt. eigenvalues --    2.00666   2.02525   2.03611   2.04264   2.04924
  Beta virt. eigenvalues --    2.05795   2.07561   2.07834   2.08612   2.08823
  Beta virt. eigenvalues --    2.09222   2.09255   2.09777   2.11035   2.11145
  Beta virt. eigenvalues --    2.11683   2.12117   2.12725   2.12894   2.13162
  Beta virt. eigenvalues --    2.13662   2.13955   2.14273   2.14746   2.15460
  Beta virt. eigenvalues --    2.15852   2.15962   2.16122   2.16894   2.17023
  Beta virt. eigenvalues --    2.17322   2.17888   2.18524   2.18799   2.19341
  Beta virt. eigenvalues --    2.20177   2.20588   2.21095   2.21336   2.21937
  Beta virt. eigenvalues --    2.22430   2.23053   2.23666   2.24442   2.25294
  Beta virt. eigenvalues --    2.25994   2.26610   2.27596   2.28072   2.28505
  Beta virt. eigenvalues --    2.28949   2.29456   2.30901   2.32109   2.32903
  Beta virt. eigenvalues --    2.33124   2.33589   2.34355   2.34600   2.35366
  Beta virt. eigenvalues --    2.35731   2.36517   2.37122   2.37707   2.38251
  Beta virt. eigenvalues --    2.38675   2.39532   2.40685   2.41206   2.41465
  Beta virt. eigenvalues --    2.42568   2.43181   2.43728   2.44499   2.45184
  Beta virt. eigenvalues --    2.45402   2.47458   2.48665   2.49605   2.50127
  Beta virt. eigenvalues --    2.51453   2.51780   2.52503   2.54006   2.54185
  Beta virt. eigenvalues --    2.57947   2.59563   2.63374   2.65458   2.66118
  Beta virt. eigenvalues --    2.66856   2.67041   2.67273   2.68463   2.68900
  Beta virt. eigenvalues --    2.69335   2.69488   2.69985   2.70212   2.71251
  Beta virt. eigenvalues --    2.71566   2.72101   2.72417   2.73214   2.73464
  Beta virt. eigenvalues --    2.74233   2.75251   2.75643   2.76504   2.77491
  Beta virt. eigenvalues --    2.78014   2.78373   2.78974   2.79547   2.80038
  Beta virt. eigenvalues --    2.80696   2.82860   2.82926   2.83824   2.85685
  Beta virt. eigenvalues --    2.86349   2.86924   2.87358   2.87667   2.88600
  Beta virt. eigenvalues --    2.88977   2.90085   2.90860   2.91622   2.92135
  Beta virt. eigenvalues --    2.92412   2.92816   2.93695   2.93831   2.94082
  Beta virt. eigenvalues --    2.95087   2.95699   2.96096   2.96128   2.96794
  Beta virt. eigenvalues --    2.98102   2.98905   2.99531   3.00432   3.00847
  Beta virt. eigenvalues --    3.01675   3.01939   3.02277   3.02547   3.05477
  Beta virt. eigenvalues --    3.07699   3.08031   3.08654   3.09629   3.17050
  Beta virt. eigenvalues --    3.21562   3.24611   3.25271   3.26612   3.27406
  Beta virt. eigenvalues --    3.29060   3.31578   3.33114   3.34513   3.36582
  Beta virt. eigenvalues --    3.36835   3.38822   3.40591   3.43456   3.45048
  Beta virt. eigenvalues --    3.46237   3.48820   3.49999   3.50286   3.50786
  Beta virt. eigenvalues --    3.52381   3.55357   3.56336   3.57633   3.58594
  Beta virt. eigenvalues --    3.58951   3.59899   3.61401   3.62551   3.64352
  Beta virt. eigenvalues --    3.65117   3.65363   3.68029   6.79057   8.62682
          Condensed to atoms (all electrons):
          Atomic-Atomic Spin Densities.
 Mulliken charges and spin densities:
               1          2
     1  Li   0.550839   0.000557
     2  N   -0.500329   0.001814
     3  C    0.064688   0.002744
     4  Cl   0.078130   0.001007
     5  N   -0.429384   0.001105
     6  C   -0.010485   0.006310
     7  Cl  -0.040688   0.000963
     8  N   -0.379561   0.001767
     9  C    0.005660   0.007637
    10  Cl  -0.041997   0.001175
    11  N   -0.478542   0.036765
    12  C    0.066696   0.000242
    13  Cl   0.062979   0.000779
    14  N   -0.518768   0.052919
    15  C    0.012708  -0.003106
    16  Cl  -0.023835   0.000486
    17  N   -0.486755   0.043666
    18  C    0.033706  -0.002822
    19  Cl  -0.006166   0.000456
    20  C    0.237309   0.004222
    21  H    0.143042   0.000476
    22  C    0.177197   0.002761
    23  H    0.097575   0.000308
    24  C    0.189496   0.002659
    25  H    0.109931   0.000530
    26  Co   0.733913   2.700047
    27  C    0.251470  -0.004812
    28  C   -0.193500   0.002727
    29  O   -0.703376   0.124858
    30  C   -0.327537   0.003694
    31  H    0.147585  -0.000215
    32  H    0.168557  -0.000187
    33  H    0.122223  -0.000208
    34  H    0.106011  -0.000140
    35  H    0.090366   0.001235
    36  H    0.052496   0.005618
    37  N   -0.380187  -0.000007
    38  C   -0.070113   0.000005
    39  C   -0.346135   0.000000
    40  H    0.173367   0.000011
    41  H    0.143788   0.000001
    42  H    0.143729  -0.000000
    43  H    0.134554   0.000000
    44  H    0.125279  -0.000000
    45  C   -0.066571   0.000002
    46  C   -0.347637   0.000019
    47  H    0.143170   0.000000
    48  H    0.133263   0.000001
    49  H    0.124743   0.000006
    50  H    0.149799  -0.000003
    51  H    0.169137   0.000021
    52  C   -0.088355   0.000008
    53  C   -0.351616   0.000170
    54  H    0.182966   0.000009
    55  H    0.128505   0.000004
    56  H    0.171059   0.000001
    57  H    0.154401  -0.000289
    58  H    0.126850   0.000003
    59  C   -0.085006   0.000136
    60  C   -0.343778   0.000004
    61  H    0.186303  -0.000007
    62  H    0.160348  -0.000013
    63  H    0.162023  -0.000001
    64  H    0.113143   0.000003
    65  H    0.126919  -0.000002
    66  Br  -0.240090   0.001392
    67  C    0.661997  -0.000185
    68  O   -0.342730   0.000947
    69  O   -0.314778  -0.000275
 Sum of Mulliken charges =  -0.00000   3.00000
 Mulliken charges and spin densities with hydrogens summed into heavy atoms:
               1          2
     1  Li   0.550839   0.000557
     2  N   -0.500329   0.001814
     3  C    0.064688   0.002744
     4  Cl   0.078130   0.001007
     5  N   -0.429384   0.001105
     6  C   -0.010485   0.006310
     7  Cl  -0.040688   0.000963
     8  N   -0.379561   0.001767
     9  C    0.005660   0.007637
    10  Cl  -0.041997   0.001175
    11  N   -0.478542   0.036765
    12  C    0.066696   0.000242
    13  Cl   0.062979   0.000779
    14  N   -0.518768   0.052919
    15  C    0.012708  -0.003106
    16  Cl  -0.023835   0.000486
    17  N   -0.486755   0.043666
    18  C    0.033706  -0.002822
    19  Cl  -0.006166   0.000456
    20  C    0.380351   0.004698
    22  C    0.274772   0.003069
    24  C    0.299427   0.003188
    26  Co   0.733913   2.700047
    27  C    0.303966   0.000806
    28  C    0.122642   0.002324
    29  O   -0.703376   0.124858
    30  C   -0.008938   0.004581
    37  N   -0.380187  -0.000007
    38  C    0.247042   0.000017
    39  C    0.057427   0.000000
    45  C    0.209862   0.000004
    46  C    0.096042   0.000043
    52  C    0.223116   0.000021
    53  C    0.100695  -0.000115
    59  C    0.261645   0.000116
    60  C    0.058307   0.000003
    66  Br  -0.240090   0.001392
    67  C    0.661997  -0.000185
    68  O   -0.342730   0.000947
    69  O   -0.314778  -0.000275
 Electronic spatial extent (au):  <R**2>=          29072.3341
 Charge=             -0.0000 electrons
 Dipole moment (field-independent basis, Debye):
    X=              7.5079    Y=              1.0660    Z=             -6.9248  Tot=             10.2693
 Quadrupole moment (field-independent basis, Debye-Ang):
   XX=           -334.9656   YY=           -144.8293   ZZ=           -286.4547
   XY=             42.2641   XZ=             12.5689   YZ=             52.6857
 Traceless Quadrupole moment (field-independent basis, Debye-Ang):
   XX=            -79.5491   YY=            110.5873   ZZ=            -31.0382
   XY=             42.2641   XZ=             12.5689   YZ=             52.6857
 Octapole moment (field-independent basis, Debye-Ang**2):
  XXX=            179.7439  YYY=           -237.8950  ZZZ=            -46.8860  XYY=             73.0087
  XXY=              2.2937  XXZ=             52.7328  XZZ=            -56.0972  YZZ=           -236.4343
  YYZ=           -340.7956  XYZ=            -50.3353
 Hexadecapole moment (field-independent basis, Debye-Ang**3):
 XXXX=         -13455.5994 YYYY=         -10788.0515 ZZZZ=          -7112.5391 XXXY=          -2537.7737
 XXXZ=           -300.4001 YYYX=          -1636.4549 YYYZ=           1616.8969 ZZZX=           -315.2016
 ZZZY=            -42.1161 XXYY=          -4570.8910 XXZZ=          -3458.7002 YYZZ=          -2493.6502
 XXYZ=           -272.9216 YYXZ=            228.4742 ZZXY=           -734.5813
 N-N= 7.673758097385D+03 E-N=-3.175005822530D+04  KE= 6.838660081719D+03
  Exact polarizability: 383.138  21.423 385.524  -0.044  27.580 332.469
 Approx polarizability: 456.847   0.017 426.912  -7.050  24.619 421.328
                          Isotropic Fermi Contact Couplings
        Atom                 a.u.       MegaHertz       Gauss      10(-4) cm-1
     1  Li(7)              0.00009       0.05461       0.01949       0.01822
     2  N(14)              0.00157       0.16903       0.06031       0.05638
     3  C(13)              0.00388       1.45387       0.51878       0.48496
     4  Cl(35)             0.00078       0.11348       0.04049       0.03785
     5  N(14)              0.00037       0.03979       0.01420       0.01327
     6  C(13)              0.00368       1.37938       0.49220       0.46011
     7  Cl(35)             0.00049       0.07201       0.02569       0.02402
     8  N(14)             -0.00014      -0.01532      -0.00547      -0.00511
     9  C(13)              0.00436       1.63444       0.58321       0.54519
    10  Cl(35)             0.00050       0.07290       0.02601       0.02432
    11  N(14)              0.06077       6.54528       2.33552       2.18327
    12  C(13)              0.00046       0.17139       0.06116       0.05717
    13  Cl(35)             0.00048       0.07014       0.02503       0.02340
    14  N(14)              0.06672       7.18610       2.56418       2.39702
    15  C(13)              0.00105       0.39271       0.14013       0.13099
    16  Cl(35)             0.00133       0.19451       0.06941       0.06488
    17  N(14)              0.06541       7.04458       2.51368       2.34982
    18  C(13)              0.00055       0.20496       0.07314       0.06837
    19  Cl(35)             0.00098       0.14330       0.05113       0.04780
    20  C(13)              0.00146       0.54892       0.19587       0.18310
    21  H(1)               0.00018       0.26154       0.09332       0.08724
    22  C(13)              0.00147       0.55027       0.19635       0.18355
    23  H(1)               0.00005       0.07819       0.02790       0.02608
    24  C(13)              0.00158       0.59099       0.21088       0.19713
    25  H(1)               0.00020       0.29080       0.10376       0.09700
    26  Co(59)             0.00001       0.00185       0.00066       0.00062
    27  C(13)              0.00085       0.31976       0.11410       0.10666
    28  C(13)              0.00349       1.30777       0.46665       0.43623
    29  O(17)              0.07723     -15.60577      -5.56853      -5.20553
    30  C(13)              0.00357       1.33722       0.47715       0.44605
    31  H(1)              -0.00007      -0.10562      -0.03769      -0.03523
    32  H(1)              -0.00006      -0.08791      -0.03137      -0.02932
    33  H(1)              -0.00007      -0.10920      -0.03897      -0.03643
    34  H(1)              -0.00003      -0.04840      -0.01727      -0.01615
    35  H(1)               0.00035       0.52595       0.18767       0.17544
    36  H(1)               0.00197       2.93082       1.04579       0.97762
    37  N(14)             -0.00001      -0.00064      -0.00023      -0.00021
    38  C(13)              0.00002       0.00638       0.00227       0.00213
    39  C(13)             -0.00000      -0.00000      -0.00000      -0.00000
    40  H(1)              -0.00000      -0.00040      -0.00014      -0.00013
    41  H(1)               0.00000       0.00024       0.00008       0.00008
    42  H(1)               0.00000       0.00012       0.00004       0.00004
    43  H(1)               0.00000       0.00009       0.00003       0.00003
    44  H(1)              -0.00000      -0.00001      -0.00000      -0.00000
    45  C(13)              0.00000       0.00108       0.00038       0.00036
    46  C(13)              0.00002       0.00706       0.00252       0.00236
    47  H(1)               0.00000       0.00033       0.00012       0.00011
    48  H(1)               0.00000       0.00058       0.00021       0.00019
    49  H(1)               0.00000       0.00265       0.00095       0.00088
    50  H(1)               0.00000       0.00135       0.00048       0.00045
    51  H(1)               0.00000       0.00116       0.00042       0.00039
    52  C(13)             -0.00000      -0.00071      -0.00025      -0.00024
    53  C(13)             -0.00002      -0.00869      -0.00310      -0.00290
    54  H(1)               0.00000       0.00037       0.00013       0.00013
    55  H(1)               0.00000       0.00375       0.00134       0.00125
    56  H(1)               0.00000       0.00062       0.00022       0.00021
    57  H(1)               0.00001       0.01360       0.00485       0.00454
    58  H(1)               0.00000       0.00391       0.00140       0.00131
    59  C(13)             -0.00004      -0.01347      -0.00481      -0.00449
    60  C(13)             -0.00000      -0.00066      -0.00023      -0.00022
    61  H(1)              -0.00000      -0.00491      -0.00175      -0.00164
    62  H(1)               0.00000       0.00147       0.00052       0.00049
    63  H(1)               0.00000       0.00126       0.00045       0.00042
    64  H(1)               0.00000       0.00254       0.00091       0.00085
    65  H(1)               0.00000       0.00435       0.00155       0.00145
    66  Br(79)             0.00042       0.15617       0.05572       0.05209
    67  C(13)             -0.00002      -0.00613      -0.00219      -0.00204
    68  O(17)              0.00047      -0.09580      -0.03418      -0.03195
    69  O(17)             -0.00058       0.11792       0.04208       0.03933
 --------------------------------------------------------
       Center         ----  Spin Dipole Couplings  ----
                      3XX-RR        3YY-RR        3ZZ-RR
 --------------------------------------------------------
     1   Atom       -0.001949      0.002057     -0.000107
     2   Atom       -0.008377      0.009210     -0.000833
     3   Atom       -0.003542      0.005826     -0.002284
     4   Atom       -0.004108      0.005368     -0.001260
     5   Atom       -0.001105      0.007340     -0.006234
     6   Atom        0.000831     -0.003205      0.002374
     7   Atom        0.000770     -0.000177     -0.000593
     8   Atom        0.013317     -0.007121     -0.006196
     9   Atom        0.005956      0.003108     -0.009065
    10   Atom        0.007056      0.000817     -0.007873
    11   Atom       -0.063026      0.088207     -0.025180
    12   Atom        0.003944      0.009501     -0.013445
    13   Atom        0.010740     -0.001205     -0.009536
    14   Atom        0.094434     -0.005108     -0.089326
    15   Atom        0.015596     -0.010705     -0.004890
    16   Atom        0.000514     -0.009363      0.008849
    17   Atom        0.014810     -0.016328      0.001519
    18   Atom        0.024807     -0.014018     -0.010789
    19   Atom        0.014503     -0.003769     -0.010734
    20   Atom       -0.015559      0.014496      0.001063
    21   Atom       -0.006327      0.005539      0.000788
    22   Atom        0.009388     -0.003384     -0.006004
    23   Atom        0.000342     -0.008371      0.008028
    24   Atom       -0.013005      0.009740      0.003264
    25   Atom       -0.013144      0.011417      0.001727
    26   Atom       -0.299736     -0.246842      0.546578
    27   Atom        0.005294     -0.010866      0.005572
    28   Atom       -0.005478     -0.002308      0.007786
    29   Atom       -0.065353     -0.113552      0.178905
    30   Atom        0.008485     -0.008699      0.000214
    31   Atom       -0.009989      0.003626      0.006364
    32   Atom       -0.005477     -0.004123      0.009600
    33   Atom        0.009444     -0.007006     -0.002438
    34   Atom        0.000391     -0.005273      0.004882
    35   Atom        0.003144     -0.003363      0.000219
    36   Atom        0.010149     -0.002036     -0.008113
    37   Atom       -0.001199      0.003055     -0.001856
    38   Atom       -0.001050      0.002275     -0.001224
    39   Atom       -0.000502      0.001193     -0.000691
    40   Atom       -0.001335      0.002561     -0.001227
    41   Atom       -0.001142      0.002276     -0.001134
    42   Atom       -0.000496      0.000990     -0.000493
    43   Atom       -0.000275      0.000931     -0.000656
    44   Atom       -0.000422      0.001011     -0.000589
    45   Atom       -0.000637      0.001682     -0.001046
    46   Atom       -0.000475      0.001277     -0.000802
    47   Atom       -0.000323      0.001153     -0.000830
    48   Atom       -0.000721      0.001554     -0.000833
    49   Atom       -0.000352      0.000807     -0.000455
    50   Atom        0.000001      0.000887     -0.000888
    51   Atom       -0.000914      0.001591     -0.000677
    52   Atom       -0.002590      0.005251     -0.002660
    53   Atom       -0.004735      0.009527     -0.004793
    54   Atom       -0.002933      0.005430     -0.002497
    55   Atom       -0.001761      0.003411     -0.001650
    56   Atom       -0.004545      0.009879     -0.005333
    57   Atom       -0.008721      0.017249     -0.008528
    58   Atom       -0.003105      0.005797     -0.002691
    59   Atom       -0.000295      0.002782     -0.002487
    60   Atom        0.000541      0.000938     -0.001479
    61   Atom        0.000184      0.002898     -0.003082
    62   Atom       -0.000854      0.004369     -0.003515
    63   Atom        0.001472      0.000190     -0.001662
    64   Atom        0.000390      0.000682     -0.001072
    65   Atom        0.000231      0.000804     -0.001034
    66   Atom       -0.007914      0.011456     -0.003543
    67   Atom       -0.008001     -0.002486      0.010487
    68   Atom       -0.006231     -0.003331      0.009562
    69   Atom       -0.008273      0.002503      0.005769
 --------------------------------------------------------
                        XY            XZ            YZ
 --------------------------------------------------------
     1   Atom        0.000582      0.000394      0.002814
     2   Atom        0.001402      0.002085      0.009647
     3   Atom        0.004598      0.002670      0.004115
     4   Atom        0.004123      0.003067      0.004496
     5   Atom        0.011079     -0.006039     -0.008155
     6   Atom        0.005896     -0.005265      0.000149
     7   Atom        0.006899     -0.002491     -0.000565
     8   Atom       -0.010939     -0.009657      0.003491
     9   Atom       -0.003090      0.000041     -0.000743
    10   Atom       -0.002376     -0.001434      0.000842
    11   Atom        0.046461      0.029506      0.080718
    12   Atom        0.020128      0.004365      0.006861
    13   Atom        0.009369     -0.004216      0.002174
    14   Atom       -0.099519     -0.023311      0.011781
    15   Atom       -0.020791      0.015467     -0.006598
    16   Atom       -0.007561      0.012333     -0.006853
    17   Atom        0.079846     -0.081651     -0.055527
    18   Atom        0.004193     -0.015188     -0.006362
    19   Atom       -0.007984     -0.006270      0.000402
    20   Atom       -0.006227     -0.001273      0.017109
    21   Atom       -0.010104     -0.009376      0.015831
    22   Atom       -0.014506     -0.018930      0.010220
    23   Atom       -0.010046     -0.017036      0.011668
    24   Atom        0.011320     -0.009138     -0.017054
    25   Atom        0.000397     -0.001072     -0.019919
    26   Atom       -0.184695      0.577383      0.165813
    27   Atom        0.018598      0.027270      0.015624
    28   Atom        0.001640      0.003917      0.011412
    29   Atom       -0.162720      0.079832     -0.065290
    30   Atom       -0.001726      0.012450     -0.000334
    31   Atom        0.000077      0.000821      0.014932
    32   Atom        0.000851      0.002363      0.005520
    33   Atom       -0.002638      0.008550     -0.000983
    34   Atom       -0.001056      0.007953     -0.001750
    35   Atom        0.001888      0.005600      0.001419
    36   Atom        0.021083      0.015153      0.010296
    37   Atom        0.001846     -0.000037     -0.000095
    38   Atom        0.001015      0.000180      0.000617
    39   Atom        0.000736      0.000151      0.000401
    40   Atom        0.001256      0.000423      0.001385
    41   Atom        0.000443      0.000064      0.000479
    42   Atom        0.000518      0.000164      0.000518
    43   Atom        0.000897      0.000208      0.000390
    44   Atom        0.000550      0.000058      0.000169
    45   Atom        0.001180     -0.000204     -0.000478
    46   Atom        0.001336     -0.000523     -0.000965
    47   Atom        0.001031     -0.000097     -0.000187
    48   Atom        0.000688     -0.000126     -0.000446
    49   Atom        0.000841     -0.000388     -0.000737
    50   Atom        0.001646     -0.000691     -0.000894
    51   Atom        0.001409     -0.000753     -0.001666
    52   Atom        0.001268     -0.000184     -0.000998
    53   Atom       -0.000083      0.000012      0.000846
    54   Atom        0.002022     -0.000708     -0.002844
    55   Atom        0.000274     -0.000050     -0.000852
    56   Atom       -0.003226      0.000178     -0.000980
    57   Atom        0.003194      0.000558      0.004118
    58   Atom       -0.000537     -0.000103      0.002061
    59   Atom        0.003695      0.000026      0.000177
    60   Atom        0.002292      0.000315      0.000355
    61   Atom        0.004782     -0.000851     -0.001046
[...]
 00002382,-0.00001946,0.00004214,-0.00001750,-0.00000769,0.00001542,0.0
 0002049,0.00001124,0.00002560,-0.00010202,0.00004259,-0.00000102,0.000
 00543,-0.00001544,-0.00001290,-0.00002642,-0.00000110,0.00003589,-0.00
 006690,-0.00001681,-0.00004337,-0.00000623,0.00001967,0.00000991,0.000
 02018,-0.00001124,0.00000194,-0.00001655,0.00000868,-0.00009820,0.0002
 8536,0.00036368,0.17562901,0.,0.,0.,0.,0.,0.,0.00009989,-0.00094702,-0
 .00067889,-0.00013201,0.00003283,0.00010719,0.,0.,0.,-0.00011931,0.000
 06634,-0.00002495,0.00018039,0.00002100,-0.00006809,0.,0.,0.,0.0002605
 2,-0.00014270,-0.00002004,-0.00036547,0.00017545,-0.00022758,0.0004348
 6,-0.00163652,0.00089986,-0.00033104,0.00005033,-0.00162651,0.00009666
 ,-0.00002281,0.00111235,-0.00069948,-0.00031512,-0.00068207,-0.0003556
 4,0.00030777,0.00066657,0.00004843,-0.00017688,-0.00061892,0.00017332,
 -0.00029508,-0.00111178,-0.00087892,0.00055130,-0.00012342,0.00027317,
 -0.00036868,-0.00009940,0.00017595,0.00024168,-0.00009312,0.00003988,0
 .00021019,0.00005142,0.00067648,-0.00043560,0.00102109,0.00021225,-0.0
 0047489,-0.00009640,0.00010971,-0.00051585,0.00016736,0.00001820,0.000
 00132,0.00007855,0.00348707,0.00431834,0.00768311,-0.00317217,-0.00276
 733,-0.00183070,-0.00147425,-0.00257993,0.00040479,0.00271434,0.002351
 82,-0.01164903,-0.00037822,-0.00075414,0.00171210,0.00023508,0.0001548
 7,-0.00007442,-0.00003119,-0.00116561,-0.00099601,0.00069857,0.0002957
 5,-0.00066859,-0.00166746,0.00051589,-0.00058712,0.00055622,0.00014243
 ,-0.00036789,0.00107676,0.00118291,-0.00003194,0.00013392,0.00020820,-
 0.00018754,-0.00007387,-0.00006881,0.00005461,-0.00000522,0.00000521,-
 0.00002978,0.00005448,-0.00012154,0.00010682,-0.00000371,0.00002120,-0
 .00002751,-0.00000109,-0.00004984,0.00000192,-0.00002271,-0.00003221,0
 .00001340,0.00001766,0.00004427,-0.00002893,-0.00014475,-0.00011712,0.
 00015027,0.00002739,0.00003594,-0.00002609,0.00000829,-0.00000763,-0.0
 0000813,0.00000727,0.00002095,-0.00002172,0.00001350,0.00002423,-0.000
 02109,-0.00002303,0.00000150,0.00003112,-0.00000734,-0.00000924,0.0000
 3175,-0.00002740,-0.00001908,0.00007268,0.00002876,-0.00008792,-0.0000
 3588,0.00001422,0.00002085,0.00002100,0.00002226,0.00005625,-0.0000109
 4,-0.00001093,0.00003387,-0.00002942,-0.00002012,-0.00000432,0.0001338
 4,0.00004423,-0.00007280,-0.00000297,-0.00009003,-0.00020644,0.0001330
 1,0.00002614,0.00007783,-0.00000779,-0.00000969,0.00006598,0.00006435,
 0.00009925,-0.00015305,0.00010391,-0.00010579,-0.00000649,0.00007544,0
 .00004258,0.00007279,-0.00005796,-0.00008244,-0.00011106,-0.00000095,0
 .00088939,0.00144473,0.00014871,-0.14908327,0.80747890,0.,0.,0.,0.,0.,
 0.,-0.00026707,-0.00128177,-0.00066156,0.00020492,0.00058605,0.0002813
 8,0.,0.,0.,0.00033208,-0.00007081,-0.00009060,-0.00027098,-0.00012569,
 0.00007266,0.,0.,0.,0.00010065,-0.00005341,-0.00036691,0.00014693,-0.0
 0008114,-0.00002446,0.00064900,-0.00053207,0.00195287,-0.00124153,-0.0
 0078417,-0.00222113,0.00017522,0.00023325,0.00115470,0.00101507,-0.001
 23586,-0.00041480,-0.00080684,0.00040152,-0.00050082,0.00010809,-0.000
 17769,-0.00034906,-0.00042589,-0.00096029,0.00031062,0.00017173,0.0004
 3704,-0.00027528,0.00006724,-0.00033627,0.00000278,0.00082619,-0.00057
 886,-0.00099943,0.00004834,0.00016580,0.00002091,-0.00014941,0.0001283
 7,0.00200305,-0.00006545,-0.00028678,0.00028728,-0.00014940,0.00046857
 ,-0.00032073,0.00003378,0.00001159,0.00006562,-0.00031095,0.00651669,-
 0.00204299,0.00305035,0.00176220,0.00711739,-0.00149799,-0.00118199,0.
 00246256,-0.00313557,-0.01035995,-0.01011231,-0.00076720,-0.00161665,0
 .00198375,0.00011381,0.00034508,-0.00018557,-0.00009785,-0.00177278,-0
 .00144834,0.00116193,0.00038221,-0.00078186,-0.00174110,0.00084064,-0.
 00076612,0.00014943,0.00026670,-0.00088649,-0.00116956,-0.00113609,-0.
 00114307,0.00001903,-0.00003880,-0.00019679,-0.00008127,0.00002342,0.0
 0020817,0.00000396,-0.00000237,-0.00005341,0.00003505,-0.00008990,0.00
 009918,0.00000323,0.00001152,-0.00002468,0.00000060,-0.00004726,-0.000
 01472,-0.00001326,-0.00000941,0.00003375,0.00000490,0.00002920,-0.0000
 0796,-0.00004760,-0.00004982,0.00006359,0.00000929,0.00000528,-0.00000
 675,-0.00001515,-0.00000133,-0.00000926,0.00001841,-0.00000240,-0.0000
 0494,0.00000005,-0.00001904,-0.00001632,0.00002612,0.00003117,0.000034
 85,-0.00002471,0.00007444,-0.00000256,0.00007070,0.00001248,0.00006254
 ,-0.00004025,0.00001554,-0.00003044,0.00000430,0.00012692,0.00000653,-
 0.00000524,-0.00001780,-0.00001355,-0.00002549,0.00008156,-0.00001982,
 0.00002639,0.00007960,0.00017979,0.00003499,-0.00012445,-0.00001968,-0
 .00003282,-0.00001649,0.00002698,0.00001735,0.00004328,0.00002021,0.00
 003928,0.00015154,0.00007914,0.00002876,0.00002715,0.00018221,0.000004
 68,-0.00000065,0.00007741,0.00000317,0.00002192,-0.00003474,-0.0000700
 9,-0.00010103,-0.00003565,0.00030287,-0.00000089,-0.00127577,-0.180480
 39,0.88896009,1.28750889,0.,0.,0.,0.,0.,0.,0.00003238,-0.00005351,-0.0
 0006822,0.00004065,0.00006416,0.00000567,0.,0.,0.,0.00007155,-0.000003
 78,-0.00002261,-0.00003677,-0.00001935,0.00001725,0.,0.,0.,0.00007880,
 -0.00008004,-0.00008421,0.00000502,0.00000122,-0.00002403,0.00023702,0
 .00005652,0.00008966,-0.00065587,0.00000506,0.00019500,0.00039644,-0.0
 0009436,0.00002831,0.00041213,-0.00010867,-0.00008306,-0.00021104,0.00
 011649,-0.00014091,0.00004238,-0.00002226,-0.00010373,-0.00000261,-0.0
 0008002,0.00021310,0.00004004,0.00012407,-0.00006478,0.00003998,-0.000
 06992,0.00005578,0.00010282,-0.00014574,-0.00019314,0.00000029,-0.0000
 0760,-0.00002698,0.00005359,0.00011769,0.00054249,-0.00014714,-0.00031
 468,0.00005210,-0.00006482,0.00009101,-0.00004282,-0.00000878,-0.00001
 612,0.00000617,-0.00120405,0.00024420,-0.00097799,-0.00018411,0.000652
 89,0.00008956,0.00026873,0.00003382,0.00006622,0.00110588,-0.00238555,
 0.00359319,-0.00012529,0.00061245,-0.00132645,-0.00005516,-0.00021560,
 0.00010527,-0.00055302,-0.00030728,0.00004816,-0.00008502,-0.00014345,
 0.00016434,-0.00060154,-0.00052222,0.00097974,-0.00021134,-0.00028321,
 0.00036689,0.00004574,-0.00028562,0.00003183,0.00001728,-0.00004634,0.
 00001128,-0.00000149,0.00001710,0.00002044,-0.00000047,-0.00000186,-0.
 00000224,-0.00001634,0.00002071,-0.00001344,0.00000251,-0.00001204,0.0
 0000601,-0.00000170,0.00000322,-0.00000388,0.00000817,0.00000738,0.000
 00254,-0.00000109,-0.00000424,0.00000518,0.00001922,0.00000861,-0.0000
 1039,-0.00000580,-0.00000321,0.00000170,-0.00000008,0.00000708,-0.0000
 0027,0.00000231,-0.00000890,0.00000330,-0.00000221,-0.00000739,0.00000
 085,0.00001007,0.00000378,-0.00000114,-0.00000293,0.00001347,-0.000003
 86,-0.00003755,-0.00001617,-0.00000944,0.00000932,0.00003202,0.0000031
 1,-0.00000086,0.00002138,-0.00000266,0.00000224,-0.00000975,-0.0000001
 7,-0.00000652,-0.00001707,0.00001482,-0.00002461,0.00000410,-0.0000060
 7,-0.00001423,-0.00000757,-0.00000712,-0.00001420,0.00006564,-0.000026
 80,-0.00000051,-0.00000756,0.00000742,0.00000611,0.00000756,-0.0000011
 5,-0.00002497,0.00004050,-0.00000339,0.00002720,0.00000449,-0.00001697
 ,-0.00000628,-0.00001368,0.00001029,0.00000406,0.00001765,-0.00000386,
 0.00005536,-0.00017932,-0.00009112,-0.08881693,0.07563244,0.10169689,0
 .05711072,0.,0.,0.,0.,0.,0.,-0.00000771,0.00049470,0.00032599,0.000023
 93,-0.00007255,-0.00006066,0.,0.,0.,0.00002534,-0.00001541,0.00001649,
 -0.00004490,0.00000576,0.00002047,0.,0.,0.,-0.00014597,0.00008212,0.00
 006066,0.00014138,-0.00006759,0.00010163,-0.00028965,0.00067436,-0.000
 55770,0.00041018,0.00005148,0.00060445,0.00000854,-0.00002519,-0.00035
 011,0.00013365,0.00025925,0.00031560,0.00025494,-0.00017517,-0.0001847
 2,-0.00003261,0.00009042,0.00029340,-0.00001617,0.00021872,0.00037715,
 0.00030451,-0.00025142,0.00007285,-0.00010909,0.00017306,0.00003795,-0
 .00018142,-0.00002286,0.00018923,-0.00002230,-0.00009450,-0.00002052,-
 0.00029481,0.00015869,-0.00073697,-0.00009508,0.00032431,-0.00003722,-
 0.00002421,0.00013979,-0.00002020,-0.00001036,0.00000063,-0.00003810,-
 0.00121960,-0.00237010,-0.00240091,0.00079787,0.00040455,-0.00069640,0
 .00103104,0.00091494,-0.00121051,-0.00189068,-0.00064651,0.00898105,-0
 .00010631,0.00070506,-0.00088162,-0.00013483,-0.00015379,0.00013650,-0
 .00041290,-0.00036530,0.00118115,-0.00044031,-0.00016073,0.00035650,0.
 00026757,-0.00074986,0.00042030,-0.00018526,-0.00009959,0.00026253,-0.
 00031350,-0.00013829,0.00021245,-0.00006334,-0.00008462,0.00010333,0.0
 0004661,0.00003140,-0.00005346,0.00000221,-0.00000239,0.00002166,-0.00
 003199,0.00007015,-0.00006546,0.00000058,-0.00001173,0.00001776,0.0000
 0063,0.00002942,0.00000085,0.00001216,0.00001616,-0.00001039,-0.000009
 35,-0.00002399,0.00001442,0.00006782,0.00006099,-0.00007216,-0.0000130
 7,-0.00001718,0.00001231,-0.00000213,0.00000320,0.00000416,-0.00000445
 ,-0.00000831,0.00000933,-0.00000616,-0.00000852,0.00001154,0.00000738,
 -0.00000362,-0.00001696,0.00000575,-0.00000331,-0.00001353,0.00000871,
 0.00000887,-0.00003634,-0.00000781,0.00003417,0.00002190,-0.00000786,-
 0.00002370,-0.00000914,-0.00001043,-0.00002343,0.00000624,0.00000685,-
 0.00002564,0.00001636,0.00000742,-0.00001917,-0.00008808,-0.00002718,0
 .00005120,0.00000344,0.00004220,0.00009126,-0.00005264,-0.00001463,-0.
 00004409,-0.00000470,-0.00000171,-0.00004826,-0.00003193,-0.00004386,0
 .00005623,-0.00008189,0.00004270,0.00000353,-0.00003930,-0.00001869,-0
 .00003181,0.00003319,0.00005151,0.00006478,0.00000386,-0.00056679,-0.0
 0073464,0.00021395,0.07311362,-0.36621687,-0.42290358,-0.07980213,0.38
 080340,0.,0.,0.,0.,0.,0.,0.00009729,0.00067887,0.00035780,-0.00008656,
 -0.00026859,-0.00012648,0.,0.,0.,-0.00018086,0.00004994,0.00004292,0.0
 0015302,0.00006744,-0.00004046,0.,0.,0.,-0.00003521,0.00001727,0.00018
 257,-0.00009156,0.00005455,-0.00000071,-0.00046817,0.00026190,-0.00078
 401,0.00080461,0.00013276,0.00057284,-0.00002151,-0.00005893,-0.000332
 36,-0.00055644,0.00058014,0.00017638,0.00038515,-0.00019926,0.00025902
 ,-0.00005716,0.00008731,0.00015132,0.00022001,0.00047762,-0.00028565,-
 0.00014813,-0.00019930,0.00015551,-0.00002738,0.00015043,-0.00000316,-
 0.00037694,0.00021252,0.00051856,-0.00002659,-0.00008185,0.00000728,0.
 00013250,-0.00006618,-0.00087974,0.00005182,0.00006305,-0.00014082,0.0
 0007281,-0.00028750,0.00018437,-0.00001575,-0.00000617,-0.00003309,0.0
 0069652,-0.00246946,0.00088893,-0.00179532,-0.00128982,-0.00371042,0.0
 0054025,0.00031324,-0.00107560,0.00336396,0.00700083,-0.00109084,0.000
 32918,0.00079700,-0.00071395,-0.00007578,-0.00020689,0.00013491,0.0000
 5297,0.00100346,0.00050774,-0.00050460,-0.00017270,0.00035610,0.000876
 18,-0.00049609,0.00023316,-0.00002816,-0.00012818,0.00036772,0.0006808
 5,0.00066525,0.00063903,-0.00000297,0.00003116,0.00009897,0.00004031,-
 0.00001683,-0.00011156,-0.00000220,0.00000148,0.00002737,-0.00001658,0
 .00004323,-0.00004932,-0.00000186,-0.00000528,0.00001198,-0.00000054,0
 .00002373,0.00000809,0.00000624,0.00000358,-0.00001800,-0.00000175,-0.
 00001390,0.00000316,0.00001920,0.00002188,-0.00002777,-0.00000379,-0.0
 0000132,0.00000253,0.00000889,0.00000048,0.00000448,-0.00000972,0.0000
 0220,0.00000154,0.00000058,0.00001122,0.00000786,-0.00001502,-0.000016
 73,-0.00001750,0.00001297,-0.00004013,0.00000281,-0.00004239,-0.000008
 54,-0.00003086,0.00002382,-0.00001188,0.00001504,-0.00000258,-0.000067
 15,-0.00000294,0.00000440,0.00001240,0.00000620,0.00001111,-0.00004497
 ,0.00000822,-0.00001427,-0.00004257,-0.00009070,-0.00001971,0.00006073
 ,0.00001118,0.00001234,0.00000080,-0.00000693,-0.00000786,-0.00001937,
 -0.00001183,-0.00002219,-0.00007988,-0.00003915,-0.00001140,-0.0000234
 9,-0.00009556,-0.00000724,0.00000015,-0.00003862,0.00000033,-0.0000089
 5,0.00001597,0.00003371,0.00004961,0.00001947,-0.00006948,0.00009214,0
 .00063747,0.09942849,-0.42888768,-0.66652411,-0.11702289,0.47772108,0.
 71440950,0.,0.,0.,0.,0.,0.,-0.00004215,0.00021557,0.00015420,0.0000711
 8,0.00000667,-0.00004409,0.,0.,0.,0.00007068,0.00000803,-0.00003332,-0
 .00001708,-0.00001522,0.00000969,0.,0.,0.,0.00004984,-0.00004785,-0.00
 003214,0.00000340,0.00000156,-0.00000618,0.00025756,-0.00000431,0.0001
 0575,-0.00134945,0.00028475,0.00106249,-0.00071793,0.00019434,-0.00164
 987,0.00022768,0.00003084,0.00001578,-0.00005609,0.00003785,-0.0000524
 3,0.00002065,0.00000484,-0.00002260,0.00003369,-0.00002272,0.00011549,
 -0.00013385,0.00020867,-0.00006893,0.00010147,-0.00010851,0.00004512,0
 .00016283,-0.00023361,-0.00035037,-0.00000576,0.00000829,-0.00008940,-
 0.00000926,0.00003790,0.00011867,-0.00004621,-0.00008385,0.00000633,-0
 .00003075,0.00000155,0.00000503,-0.00000618,-0.00002080,0.00001029,-0.
 00106140,-0.00007105,-0.00082243,0.00035274,0.00032116,0.00052641,-0.0
 0017893,-0.00012268,0.00034937,0.00077198,-0.00348975,0.00068723,-0.00
 005483,0.00000075,0.00020905,0.00001498,-0.00001142,-0.00004539,-0.000
 00937,-0.00013661,-0.00012424,0.00028827,0.00011586,-0.00024021,-0.000
 10565,0.00016820,0.00004447,0.00003965,-0.00013946,-0.00005196,-0.0000
 6384,-0.00019265,-0.00006557,0.00001711,-0.00002215,-0.00000184,-0.000
 00520,0.00000714,0.00001721,-0.00000053,-0.00000078,-0.00000395,-0.000
 00529,0.00000434,-0.00000116,0.00000173,-0.00000547,0.00000081,-0.0000
 0068,-0.00000043,-0.00000231,0.00000369,0.00000298,0.00000274,0.000000
 07,-0.00000059,0.00000211,0.00000634,0.00000101,-0.00000061,-0.0000030
 9,-0.00000076,-0.00000004,0.00000009,0.00000414,-0.00000044,0.00000207
 ,-0.00000501,0.00000068,-0.00000139,-0.00000451,-0.00000075,0.00000627
 ,0.00000352,0.00000156,-0.00000258,0.00001011,-0.00000193,-0.00002399,
 -0.00001001,-0.00000093,0.00000604,0.00001619,-0.00000275,-0.00000168,
 0.00001668,-0.00000063,0.00000212,-0.00000512,-0.00000164,-0.00000304,
 -0.00001199,0.00000716,-0.00001929,0.00000395,0.00000240,-0.00000277,-
 0.00000706,-0.00000425,-0.00001405,0.00003343,-0.00001072,0.00000188,0
 .00000004,0.00000440,0.00000329,0.00001109,0.00000283,-0.00001008,0.00
 001955,0.00000730,0.00001136,0.00000119,-0.00000392,-0.00000258,-0.000
 00470,0.00000264,-0.00000257,0.00000282,-0.00000320,0.00003708,-0.0000
 8531,-0.00015566,-0.08362103,0.07126809,0.08238778,0.03256448,0.009587
 66,0.01370529,0.05195210,0.,0.,0.,0.,0.,0.,-0.00011905,0.00043687,0.00
 027533,0.00012808,0.00006244,-0.00002672,0.,0.,0.,0.00005260,-0.000028
 71,0.00001357,-0.00008045,-0.00000647,0.00003141,0.,0.,0.,-0.00011365,
 0.00005762,-0.00001768,0.00014884,-0.00007344,0.00009456,-0.00009910,0
 .00076654,0.00019783,0.00004395,-0.00036225,0.00057080,0.00027798,0.00
 004594,-0.00020172,0.00033306,0.00013636,0.00033765,0.00015267,-0.0001
 2929,-0.00028865,-0.00002253,0.00007610,0.00026694,-0.00008223,0.00016
 035,0.00044422,0.00040205,-0.00026242,0.00006680,-0.00013085,0.0001685
 1,0.00004325,0.00007886,-0.00036685,-0.00011111,-0.00001573,-0.0000964
 3,-0.00000404,-0.00025298,0.00018141,-0.00040474,-0.00007757,0.0001263
 8,0.00001200,-0.00005686,0.00022371,-0.00006262,-0.00001296,-0.0000034
 2,-0.00003370,-0.00145347,-0.00177810,-0.00311777,0.00137207,-0.000378
 50,0.00160390,0.00048141,0.00100912,-0.00028162,-0.00265337,-0.0056318
 9,0.00350870,0.00022511,0.00047178,-0.00045669,-0.00015514,-0.00010906
 ,0.00007518,0.00008213,0.00059206,0.00038104,-0.00031441,-0.00011981,0
 .00028022,0.00054685,-0.00022990,-0.00006273,-0.00014633,-0.00002337,0
 .00008744,-0.00055066,-0.00057202,-0.00010920,-0.00006294,-0.00009514,
 0.00009225,0.00003685,0.00003021,-0.00003246,0.00000276,-0.00000247,0.
 00001508,-0.00002573,0.00005892,-0.00005194,0.00000154,-0.00001023,0.0
 0001289,0.00000048,0.00002469,-0.00000038,0.00001068,0.00001501,-0.000
 00734,-0.00000834,-0.00002135,0.00001369,0.00006901,0.00005596,-0.0000
 7096,-0.00001287,-0.00001708,0.00001239,-0.00000307,0.00000336,0.00000
 372,-0.00000405,-0.00000978,0.00001006,-0.00000627,-0.00001095,0.00001
 019,0.00001028,-0.00000128,-0.00001518,0.00000395,0.00000297,-0.000014
 48,0.00000870,0.00000936,-0.00003383,-0.00000657,0.00003682,0.00001744
 ,-0.00000628,-0.00001242,-0.00000946,-0.00000995,-0.00002538,0.0000050
 8,0.00000631,-0.00002075,0.00001392,-0.00000168,-0.00000763,-0.0000780
 1,-0.00001934,0.00003794,0.00000081,0.00004578,0.00009770,-0.00006258,
 -0.00001207,-0.00003800,0.00000217,0.00000347,-0.00003371,-0.00003155,
 -0.00004737,0.00007072,-0.00005433,0.00004885,0.00000256,-0.00003531,-
 0.00002031,-0.00003395,0.00002731,0.00004005,0.00005322,0.00000134,-0.
 00037772,-0.00063122,-0.00007915,0.07261485,-0.44015339,-0.45574060,0.
 00727962,-0.01341675,-0.05589618,-0.07774820,0.45932687,0.,0.,0.,0.,0.
 ,0.,0.00013619,0.00089518,0.00052738,-0.00011647,-0.00034405,-0.000152
 59,0.,0.,0.,-0.00012831,0.00001791,0.00004318,0.00009697,0.00004917,-0
 .00002373,0.,0.,0.,-0.00004913,0.00002169,0.00014576,-0.00001944,0.000
 01540,0.00003620,-0.00063827,0.00055856,-0.00178315,0.00047003,0.00065
 654,0.00068874,-0.00066266,0.00003547,-0.00125799,-0.00028996,0.000562
 54,0.00027567,0.00037567,-0.00021127,0.00008897,-0.00004933,0.00010739
 ,0.00023089,0.00017487,0.00045615,0.00004791,0.00003654,-0.00024983,0.
 00012857,-0.00005557,0.00019140,0.00001554,-0.00058614,0.00048115,0.00
 073280,-0.00003230,-0.00010161,-0.00003932,-0.00001276,0.00001902,-0.0
 0090988,-0.00000766,0.00013570,-0.00009785,0.00004250,-0.00013271,0.00
 011615,-0.00001707,-0.00000907,-0.00004024,-0.00060995,-0.00345139,-0.
 00068330,-0.00084365,-0.00040949,-0.00210663,0.00080073,0.00083709,-0.
 00110438,0.00161380,0.00475037,0.00520511,0.00041144,0.00064666,-0.000
 65520,-0.00008981,-0.00016202,0.00009557,0.00007633,0.00084062,0.00067
 131,-0.00047438,-0.00014411,0.00031375,0.00066126,-0.00041372,0.000157
 40,-0.00007555,-0.00007997,0.00029105,0.00022243,0.00025268,0.00041497
 ,-0.00002212,-0.00000992,0.00010696,0.00004306,-0.00000215,-0.00009441
 ,-0.00000101,0.00000030,0.00002612,-0.00002167,0.00005317,-0.00005411,
 -0.00000083,-0.00000815,0.00001367,-0.00000025,0.00002577,0.00000603,0
 .00000855,0.00000781,-0.00001577,-0.00000408,-0.00001747,0.00000663,0.
 00003822,0.00003385,-0.00004423,-0.00000747,-0.00000646,0.00000582,0.0
 0000575,0.00000171,0.00000506,-0.00000901,-0.00000209,0.00000491,-0.00
 000158,0.00000536,0.00000929,-0.00000831,-0.00001361,-0.00001850,0.000
 01138,-0.00003070,-0.00000247,-0.00003179,-0.00000361,-0.00003780,0.00
 001365,0.00000721,0.00001687,-0.00000336,-0.00005708,-0.00000470,0.000
 00002,0.00000102,0.00000741,0.00001390,-0.00003988,0.00001040,-0.00000
 855,-0.00002578,-0.00008688,-0.00001851,0.00006262,0.00000766,0.000027
 13,0.00003412,-0.00003097,-0.00001018,-0.00002797,-0.00000677,-0.00001
 576,-0.00007169,-0.00004328,-0.00002560,0.00000862,-0.00008851,0.00001
 102,0.00000009,-0.00004058,-0.00000713,-0.00001777,0.00002098,0.000039
 38,0.00005515,0.00001521,-0.00024288,-0.00019507,0.00049121,0.08316888
 ,-0.45178182,-0.61428159,0.01205927,-0.06200554,-0.04485478,-0.0955697
 6,0.50819812,0.65744652\\0.,0.,0.,0.,0.,0.,0.,0.,0.,0.,0.,0.,0.,0.,0.,
 0.,0.,0.,0.,0.,0.,0.,0.,0.,0.,0.,0.,0.,0.,0.,0.,0.,0.,0.,0.,0.,0.,0.,0
 .,0.,0.,0.00000001,0.00000001,0.,0.,0.,0.,0.,0.,0.00000001,0.,0.,0.,0.
 ,0.,0.,0.,0.,0.,0.,0.,0.,0.,0.,0.,0.,0.,0.,0.,0.,0.,0.,0.,0.,0.,-0.000
 00002,0.,0.,0.,0.,0.,0.,0.,0.,0.00000001,0.,0.,0.,0.,0.,0.,0.,0.,0.,0.
 ,0.,0.,0.,0.,0.,0.,0.,0.,0.,0.,0.,0.,0.,0.,0.,0.,0.,0.,0.,0.,0.,0.,0.,
 0.,0.,0.,0.,0.,0.,0.,0.,0.,0.,0.,0.,0.,0.,0.00000001,0.,0.,0.,0.,0.,0.
 ,0.,0.,0.,0.,0.,0.,0.,0.,0.,0.,0.,0.,0.,0.,0.,0.,0.,0.,0.,0.,0.,0.,0.,
 0.,0.,0.,0.,0.,0.,0.,0.,0.,0.,0.,0.,0.,0.,0.,0.,0.,0.,0.,0.,0.,0.,0.,0
 .,0.,0.,0.,0.,0.,0.,0.,0.,0.,0.,0.,0.,0.,0.,0.,0.,0.,0.,0.,0.,0.\\\@


 SEE YOU NOW,
 YOUR BAIT OF FALSEHOOD TAKES THIS CARP OF TRUTH.
 AND THUS DO WE OF WISDOM AND OF REACH...
 BY INDIRECTIONS FIND DIRECTIONS OUT.    -- HAMLET, II, 1
 Job cpu time:       2 days 11 hours 18 minutes 44.5 seconds.
 Elapsed time:       0 days  0 hours 56 minutes 55.9 seconds.
 File lengths (MBytes):  RWF=   8712 Int=      0 D2E=      0 Chk=     65 Scr=      2
 Normal termination of Gaussian 16 at Thu Mar  9 10:24:59 2023.
