 Entering Gaussian System, Link 0=g16
 Input=7_test_opt_freq_from_IRC_re.com
 Output=7_test_opt_freq_from_IRC_re.log
 Initial command:
 /opt/ohpc/pub/apps/gaussian/avx2/g16/l1.exe "/scratch/g16-tmp/Gau-1951737.inp" -scrdir="/scratch/g16-tmp/"
 Entering Link 1 = /opt/ohpc/pub/apps/gaussian/avx2/g16/l1.exe PID=   1951738.
  
 Copyright (c) 1988-2017, Gaussian, Inc.  All Rights Reserved.
  
 This is part of the Gaussian(R) 16 program.  It is based on
 the Gaussian(R) 09 system (copyright 2009, Gaussian, Inc.),
 the Gaussian(R) 03 system (copyright 2003, Gaussian, Inc.),
 the Gaussian(R) 98 system (copyright 1998, Gaussian, Inc.),
 the Gaussian(R) 94 system (copyright 1995, Gaussian, Inc.),
 the Gaussian 92(TM) system (copyright 1992, Gaussian, Inc.),
 the Gaussian 90(TM) system (copyright 1990, Gaussian, Inc.),
 the Gaussian 88(TM) system (copyright 1988, Gaussian, Inc.),
 the Gaussian 86(TM) system (copyright 1986, Carnegie Mellon
 University), and the Gaussian 82(TM) system (copyright 1983,
 Carnegie Mellon University). Gaussian is a federally registered
 trademark of Gaussian, Inc.
  
 This software contains proprietary and confidential information,
 including trade secrets, belonging to Gaussian, Inc.
  
 This software is provided under written license and may be
 used, copied, transmitted, or stored only in accord with that
 written license.
  
 The following legend is applicable only to US Government
 contracts under FAR:
  
                    RESTRICTED RIGHTS LEGEND
  
 Use, reproduction and disclosure by the US Government is
 subject to restrictions as set forth in subparagraphs (a)
 and (c) of the Commercial Computer Software - Restricted
 Rights clause in FAR 52.227-19.
  
 Gaussian, Inc.
 340 Quinnipiac St., Bldg. 40, Wallingford CT 06492
  
  
 ---------------------------------------------------------------
 Warning -- This program may not be used in any manner that
 competes with the business of Gaussian, Inc. or will provide
 assistance to any competitor of Gaussian, Inc.  The licensee
 of this program is prohibited from giving any competitor of
 Gaussian, Inc. access to this program.  By using this program,
 the user acknowledges that Gaussian, Inc. is engaged in the
 business of creating and licensing software in the field of
 computational chemistry and represents and warrants to the
 licensee that it is not a competitor of Gaussian, Inc. and that
 it will not use this program in any manner prohibited above.
 ---------------------------------------------------------------
  

 Cite this work as:
 Gaussian 16, Revision B.01,
 M. J. Frisch, G. W. Trucks, H. B. Schlegel, G. E. Scuseria, 
 M. A. Robb, J. R. Cheeseman, G. Scalmani, V. Barone, 
 G. A. Petersson, H. Nakatsuji, X. Li, M. Caricato, A. V. Marenich, 
 J. Bloino, B. G. Janesko, R. Gomperts, B. Mennucci, H. P. Hratchian, 
 J. V. Ortiz, A. F. Izmaylov, J. L. Sonnenberg, D. Williams-Young, 
 F. Ding, F. Lipparini, F. Egidi, J. Goings, B. Peng, A. Petrone, 
 T. Henderson, D. Ranasinghe, V. G. Zakrzewski, J. Gao, N. Rega, 
 G. Zheng, W. Liang, M. Hada, M. Ehara, K. Toyota, R. Fukuda, 
 J. Hasegawa, M. Ishida, T. Nakajima, Y. Honda, O. Kitao, H. Nakai, 
 T. Vreven, K. Throssell, J. A. Montgomery, Jr., J. E. Peralta, 
 F. Ogliaro, M. J. Bearpark, J. J. Heyd, E. N. Brothers, K. N. Kudin, 
 V. N. Staroverov, T. A. Keith, R. Kobayashi, J. Normand, 
 K. Raghavachari, A. P. Rendell, J. C. Burant, S. S. Iyengar, 
 J. Tomasi, M. Cossi, J. M. Millam, M. Klene, C. Adamo, R. Cammi, 
 J. W. Ochterski, R. L. Martin, K. Morokuma, O. Farkas, 
 J. B. Foresman, and D. J. Fox, Gaussian, Inc., Wallingford CT, 2016.
 
 ******************************************
 Gaussian 16:  ES64L-G16RevB.01 20-Dec-2017
                 9-Mar-2023 
 ******************************************
 %nprocshared=64
 Will use up to   64 processors via shared memory.
 %mem=64GB
 %chk=7_test_opt_freq_from_IRC_re.chk
 ----------------------------------------------------------------------
 # opt=(calcall,tight,cartesian) freq ucam-b3lyp/gen nosymm scf=(qc,max
 cycle=1024,vshift=100) pseudo=read
 ----------------------------------------------------------------------
 1/7=10,10=4,18=10,26=3,38=1/1,3;
 2/12=2,15=1,17=6,18=5,29=2,40=1/2;
 3/5=7,11=2,16=1,17=8,25=1,30=1,71=2,74=-40,116=2,140=1/1,2,3;
 4//1;
 5/5=2,7=1024,8=3,10=100,38=5/8;
 8/6=4,10=90,11=11/1;
 11/6=1,8=1,9=11,15=111,16=1,31=1/1,2,10;
 10/6=1,31=1/2;
 6/7=2,8=2,9=2,10=2,18=1,28=1/1;
 7/7=1,10=1,25=1,30=1/1,2,3,16;
 1/7=10,10=4,18=10,26=3/3(3);
 2/15=1,29=1/2;
 7/7=1,8=1,9=1,25=1,30=1,44=-1/16;
 99/12=1/99;
 2/15=1,29=1/2;
 3/5=7,6=1,11=2,16=1,17=8,25=1,30=1,71=2,74=-40,82=7,116=2,140=1/1,2,3;
 4/5=5,16=3,69=1/1;
 5/5=2,7=1024,8=3,10=100,38=5/8;
 8/6=4,10=90,11=11/1;
 11/6=1,8=1,9=11,15=111,16=1,31=1/1,2,10;
 10/6=1,31=1/2;
 7/7=1,10=1,25=1,30=1/1,2,3,16;
 1/7=10,10=4,18=10,26=3/3(-8);
 2/15=1,29=1/2;
 6/7=2,8=2,9=2,10=2,18=1,19=2,28=1/1;
 7/7=1,8=1,9=1,25=1,30=1,44=-1/16;
 99/12=1/99;
 ---------------------------
 7_test_opt_freq_from_IRC_re
 ---------------------------
 Symbolic Z-matrix:
 Charge =  0 Multiplicity = 4
 Li                   -1   -1.21493  -6.59159  -3.55334 
 N                    -1   -0.88453  -5.15963  -2.37072 
 C                    0    -1.73508  -5.44421  -1.34177 
 Cl                   0    -2.61625  -6.94404  -1.40103 
 N                    -1    1.70234   1.06715  -2.57196 
 C                    0     2.70656   0.26588  -2.1334 
 Cl                   0     4.372     0.63356  -2.42035 
 N                    -1   -3.93523   0.48303   0.97523 
 C                    0    -4.14101   0.54495  -0.36117 
 Cl                   0    -5.51789   1.32937  -1.05773 
 N                    0    -0.86539  -3.47718  -0.89668 
 C                    0    -1.73456  -4.4256   -0.43479 
 Cl                   0    -2.61389  -4.27039   1.02006 
 N                    0    -2.24191  -0.56245  -0.0973 
 C                    0    -3.12202  -0.0908   -1.02547 
 Cl                   0    -2.91612  -0.35185  -2.72201 
 N                    0     0.82853  -0.69867  -1.45986 
 C                    0     2.18723  -0.81077  -1.45956 
 Cl                   0     3.00079  -2.13745  -0.72457 
 C                    0    -0.38828  -3.95826  -2.04645 
 H                    0     0.32742  -3.41793  -2.64912 
 C                    0    -2.79704  -0.1912    1.08366 
 H                    0    -2.33088  -0.44395   2.02641 
 C                    0     0.60473   0.44313  -2.14718 
 H                    0    -0.39876   0.7943   -2.34547 
 Co                   0    -0.50523  -1.57482  -0.18599 
 C                    0     2.34998   0.78686   2.45262 
 C                    0     1.66997   1.60082   3.56095 
 O                    0     1.39197   0.0215    1.71878 
 C                    0     3.51065  -0.05497   2.95864 
 H                    0     0.61709   1.76519   3.3529 
 H                    0     1.78236   1.16594   4.54768 
 H                    0     3.97537  -0.58435   2.12414 
 H                    0     3.15878  -0.77971   3.69302 
 H                    0     4.26064   0.59227   3.42251 
 H                    0     2.73272   1.4796    1.70064 
 N                    0     0.53157   4.37168  -0.38242 
 C                    0     0.51265   5.34984   0.78337 
 C                    0     1.33449   6.62353   0.64333 
 H                    0     0.84056   4.78501   1.65676 
 H                    0    -0.53546   5.61898   0.92958 
 H                    0     1.26498   7.14972   1.59865 
 H                    0     2.39006   6.43987   0.45 
 H                    0     0.94713   7.29545  -0.12402 
 C                    0     0.56035   5.12813  -1.69367 
 C                    0     0.40051   4.2876   -2.95193 
 H                    0     1.50713   5.6638   -1.71729 
 H                    0    -0.23813   5.87132  -1.62454 
 H                    0     0.60479   4.94094  -3.80401 
 H                    0     1.08977   3.44015  -3.00712 
 H                    0    -0.61659   3.91158  -3.07337 
 C                    0    -0.75872   3.55454  -0.33636 
 C                    0    -1.05043   2.8267    0.963 
 H                    0    -0.68771   2.83193  -1.14666 
 H                    0    -1.55651   4.26276  -0.57367 
 H                    0    -2.04178   2.3749    0.86959 
 H                    0    -0.35336   2.00758   1.1463 
 H                    0    -1.07688   3.48721   1.83169 
 C                    0     1.69702   3.4011   -0.27936 
 C                    0     3.09387   3.9934   -0.26429 
 H                    0     1.59286   2.70558  -1.11174 
 H                    0     1.52734   2.84666   0.64036 
 H                    0     3.78664   3.15236  -0.35039 
 H                    0     3.29829   4.64975  -1.11298 
 H                    0     3.32394   4.51101   0.66792 
 Br                   0     2.46177   3.41797   3.68126 
 C                    0     0.66934  -0.92795   2.435 
 O                    0     0.7269   -0.93553   3.65388 
 O                    0    -0.00707  -1.69395   1.67186 
 

 GradGradGradGradGradGradGradGradGradGradGradGradGradGradGradGradGradGrad
 Berny optimization.
 Initialization pass.
 No Z-matrix variables, so optimization will use Cartesian coordinates.
 Trust Radius=3.00D-01 FncErr=1.00D-07 GrdErr=1.00D-06 EigMax=2.50D+02 EigMin=1.00D-04
 Number of steps in this run=    217 maximum allowed number of steps=    414.
 GradGradGradGradGradGradGradGradGradGradGradGradGradGradGradGradGradGrad

 Symmetry turned off by external request.
 Stoichiometry    C21H29BrCl6CoLiN7O3(4)
 Framework group  C1[X(C21H29BrCl6CoLiN7O3)]
 Deg. of freedom   201
 Full point group                 C1      NOp   1
                          Input orientation:                          
 ---------------------------------------------------------------------
 Center     Atomic      Atomic             Coordinates (Angstroms)
 Number     Number       Type             X           Y           Z
 ---------------------------------------------------------------------
      1          3           0       -1.214930   -6.591594   -3.553338
      2          7           0       -0.884531   -5.159626   -2.370720
      3          6           0       -1.735079   -5.444209   -1.341770
      4         17           0       -2.616252   -6.944043   -1.401030
      5          7           0        1.702340    1.067147   -2.571959
      6          6           0        2.706555    0.265883   -2.133401
      7         17           0        4.372002    0.633561   -2.420346
      8          7           0       -3.935234    0.483031    0.975232
      9          6           0       -4.141010    0.544954   -0.361173
     10         17           0       -5.517885    1.329369   -1.057725
     11          7           0       -0.865388   -3.477176   -0.896684
     12          6           0       -1.734557   -4.425595   -0.434792
     13         17           0       -2.613893   -4.270393    1.020058
     14          7           0       -2.241905   -0.562447   -0.097303
     15          6           0       -3.122019   -0.090803   -1.025471
     16         17           0       -2.916117   -0.351847   -2.722014
     17          7           0        0.828530   -0.698674   -1.459855
     18          6           0        2.187233   -0.810771   -1.459558
     19         17           0        3.000790   -2.137448   -0.724572
     20          6           0       -0.388277   -3.958256   -2.046453
     21          1           0        0.327424   -3.417930   -2.649122
     22          6           0       -2.797040   -0.191204    1.083660
     23          1           0       -2.330881   -0.443953    2.026411
     24          6           0        0.604731    0.443133   -2.147179
     25          1           0       -0.398760    0.794299   -2.345468
     26         27           0       -0.505227   -1.574821   -0.185987
     27          6           0        2.349977    0.786860    2.452617
     28          6           0        1.669972    1.600815    3.560954
     29          8           0        1.391969    0.021499    1.718780
     30          6           0        3.510645   -0.054965    2.958639
     31          1           0        0.617094    1.765186    3.352895
     32          1           0        1.782359    1.165944    4.547678
     33          1           0        3.975374   -0.584350    2.124139
     34          1           0        3.158778   -0.779712    3.693015
     35          1           0        4.260637    0.592270    3.422508
     36          1           0        2.732724    1.479596    1.700643
     37          7           0        0.531566    4.371682   -0.382415
     38          6           0        0.512651    5.349844    0.783373
     39          6           0        1.334486    6.623534    0.643330
     40          1           0        0.840562    4.785012    1.656755
     41          1           0       -0.535463    5.618977    0.929584
     42          1           0        1.264983    7.149716    1.598648
     43          1           0        2.390064    6.439872    0.449999
     44          1           0        0.947133    7.295448   -0.124022
     45          6           0        0.560345    5.128132   -1.693667
     46          6           0        0.400511    4.287601   -2.951927
     47          1           0        1.507125    5.663803   -1.717291
     48          1           0       -0.238129    5.871323   -1.624537
     49          1           0        0.604791    4.940937   -3.804012
     50          1           0        1.089773    3.440153   -3.007123
     51          1           0       -0.616585    3.911578   -3.073371
     52          6           0       -0.758718    3.554539   -0.336363
     53          6           0       -1.050427    2.826695    0.963001
     54          1           0       -0.687707    2.831926   -1.146664
     55          1           0       -1.556507    4.262760   -0.573673
     56          1           0       -2.041783    2.374900    0.869594
     57          1           0       -0.353364    2.007582    1.146298
     58          1           0       -1.076884    3.487207    1.831694
     59          6           0        1.697018    3.401097   -0.279362
     60          6           0        3.093866    3.993404   -0.264293
     61          1           0        1.592862    2.705578   -1.111744
     62          1           0        1.527335    2.846662    0.640355
     63          1           0        3.786635    3.152362   -0.350393
     64          1           0        3.298288    4.649754   -1.112977
     65          1           0        3.323941    4.511009    0.667923
     66         35           0        2.461769    3.417973    3.681256
     67          6           0        0.669339   -0.927953    2.434997
     68          8           0        0.726899   -0.935525    3.653884
     69          8           0       -0.007074   -1.693949    1.671855
 ---------------------------------------------------------------------
 Rotational constants (GHZ):           0.0773193           0.0404205           0.0371051
 General basis read from cards:  (5D, 7F)
 ======================================================================================================
                                       Pseudopotential Parameters
 ======================================================================================================
  Center     Atomic      Valence      Angular      Power
  Number     Number     Electrons     Momentum     of R      Exponent        Coefficient   SO-Coeffient
 ======================================================================================================
    1          3
                                   No pseudopotential on this center.
    2          7
                                   No pseudopotential on this center.
    3          6
                                   No pseudopotential on this center.
    4         17
                                   No pseudopotential on this center.
    5          7
                                   No pseudopotential on this center.
    6          6
                                   No pseudopotential on this center.
    7         17
                                   No pseudopotential on this center.
    8          7
                                   No pseudopotential on this center.
    9          6
                                   No pseudopotential on this center.
   10         17
                                   No pseudopotential on this center.
   11          7
                                   No pseudopotential on this center.
   12          6
                                   No pseudopotential on this center.
   13         17
                                   No pseudopotential on this center.
   14          7
                                   No pseudopotential on this center.
   15          6
                                   No pseudopotential on this center.
   16         17
                                   No pseudopotential on this center.
   17          7
                                   No pseudopotential on this center.
   18          6
                                   No pseudopotential on this center.
   19         17
                                   No pseudopotential on this center.
   20          6
                                   No pseudopotential on this center.
   21          1
                                   No pseudopotential on this center.
   22          6
                                   No pseudopotential on this center.
   23          1
                                   No pseudopotential on this center.
   24          6
                                   No pseudopotential on this center.
   25          1
                                   No pseudopotential on this center.
   26         27           17
                                      D and up 
                                                     1      434.1076104      -10.00000000    0.00000000
                                                     2       78.8402758      -66.72402760    0.00000000
                                                     2       19.6037749      -11.71922430    0.00000000
                                      S - D
                                                     0      151.2307582        3.00000000    0.00000000
                                                     1      169.6790026       20.15531100    0.00000000
                                                     2       64.9909423      413.37622440    0.00000000
                                                     2       12.5076287      133.87277050    0.00000000
                                      P - D
                                                     0       92.7319924        5.00000000    0.00000000
                                                     1      121.1910183        6.18923530    0.00000000
                                                     2       48.6265909      326.32159190    0.00000000
                                                     2       11.9966971       73.87889700    0.00000000
   27          6
                                   No pseudopotential on this center.
   28          6
                                   No pseudopotential on this center.
   29          8
                                   No pseudopotential on this center.
   30          6
                                   No pseudopotential on this center.
   31          1
                                   No pseudopotential on this center.
   32          1
                                   No pseudopotential on this center.
   33          1
                                   No pseudopotential on this center.
   34          1
                                   No pseudopotential on this center.
   35          1
                                   No pseudopotential on this center.
   36          1
                                   No pseudopotential on this center.
   37          7
                                   No pseudopotential on this center.
   38          6
                                   No pseudopotential on this center.
   39          6
                                   No pseudopotential on this center.
   40          1
                                   No pseudopotential on this center.
   41          1
                                   No pseudopotential on this center.
   42          1
                                   No pseudopotential on this center.
   43          1
                                   No pseudopotential on this center.
   44          1
                                   No pseudopotential on this center.
   45          6
                                   No pseudopotential on this center.
   46          6
                                   No pseudopotential on this center.
   47          1
                                   No pseudopotential on this center.
   48          1
                                   No pseudopotential on this center.
   49          1
                                   No pseudopotential on this center.
   50          1
                                   No pseudopotential on this center.
   51          1
                                   No pseudopotential on this center.
   52          6
                                   No pseudopotential on this center.
   53          6
                                   No pseudopotential on this center.
   54          1
                                   No pseudopotential on this center.
   55          1
                                   No pseudopotential on this center.
   56          1
                                   No pseudopotential on this center.
   57          1
                                   No pseudopotential on this center.
   58          1
                                   No pseudopotential on this center.
   59          6
                                   No pseudopotential on this center.
   60          6
                                   No pseudopotential on this center.
   61          1
                                   No pseudopotential on this center.
   62          1
                                   No pseudopotential on this center.
   63          1
                                   No pseudopotential on this center.
   64          1
                                   No pseudopotential on this center.
   65          1
                                   No pseudopotential on this center.
   66         35
                                   No pseudopotential on this center.
   67          6
                                   No pseudopotential on this center.
   68          8
                                   No pseudopotential on this center.
   69          8
                                   No pseudopotential on this center.
 ======================================================================================================
   751 basis functions,  1546 primitive gaussians,   793 cartesian basis functions
   194 alpha electrons      191 beta electrons
       nuclear repulsion energy      7624.9707409107 Hartrees.
 NAtoms=   69 NActive=   69 NUniq=   69 SFac= 1.00D+00 NAtFMM=   60 NAOKFM=T Big=T
 Integral buffers will be    131072 words long.
 Raffenetti 2 integral format.
 Two-electron integral symmetry is turned off.
 One-electron integrals computed using PRISM.
   1 Symmetry operations used in ECPInt.
 ECPInt:  NShTT=   35245 NPrTT=  210561 LenC2=   26671 LenP2D=   81714.
 LDataN:  DoStor=T MaxTD1= 4 Len=   56
 NBasis=   751 RedAO= T EigKep=  1.36D-03  NBF=   751
 NBsUse=   751 1.00D-06 EigRej= -1.00D+00 NBFU=   751
 ExpMin= 2.30D-02 ExpMax= 5.74D+05 ExpMxC= 5.74D+03 IAcc=3 IRadAn=         5 AccDes= 0.00D+00
 Harris functional with IExCor=20419 and IRadAn=       5 diagonalized for initial guess.
 HarFok:  IExCor=20419 AccDes= 0.00D+00 IRadAn=         5 IDoV= 1 UseB2=F ITyADJ=14
 ICtDFT=  3500011 ScaDFX=  1.000000  1.000000  1.000000  1.000000
 FoFCou: FMM=F IPFlag=           0 FMFlag=      100000 FMFlg1=        2001
         NFxFlg=           0 DoJE=T BraDBF=F KetDBF=T FulRan=T
         wScrn=  0.000000 ICntrl=       500 IOpCl=  0 I1Cent=   200000004 NGrid=           0
         NMat0=    1 NMatS0=      1 NMatT0=    0 NMatD0=    1 NMtDS0=    0 NMtDT0=    0
 Symmetry not used in FoFCou.
 Initial guess <Sx>= 0.0000 <Sy>= 0.0000 <Sz>= 1.5000 <S**2>= 3.7500 S= 1.5000
 Gradient too large for Newton-Raphson -- use scaled steepest descent instead.
 Gradient too large for Newton-Raphson -- use scaled steepest descent instead.
 Gradient too large for Newton-Raphson -- use scaled steepest descent instead.
 Gradient too large for Newton-Raphson -- use scaled steepest descent instead.
     Accept linear search using points  2 and  3.
 Gradient too large for Newton-Raphson -- use scaled steepest descent instead.
     Accept linear search using points  2 and  3.
 Gradient too large for Newton-Raphson -- use scaled steepest descent instead.
     Minimum is close to point  2 DX=  3.53D-02 DF= -3.31D-04 DXR=  6.59D-02 DFR=  4.36D-03 which will be used.
 Gradient too large for Newton-Raphson -- use scaled steepest descent instead.
 Restarting incremental Fock formation.
 Gradient too large for Newton-Raphson -- use scaled steepest descent instead.
     Accept linear search using points  1 and  2.
 Gradient too large for Newton-Raphson -- use scaled steepest descent instead.
     Accept linear search using points  3 and  4.
 Gradient too large for Newton-Raphson -- use scaled steepest descent instead.
     Accept linear search using points  4 and  5.
 Gradient too large for Newton-Raphson -- use scaled steepest descent instead.
 Gradient too large for Newton-Raphson -- use scaled steepest descent instead.
     Accept linear search using points  1 and  2.
 Gradient too large for Newton-Raphson -- use scaled steepest descent instead.
 Restarting incremental Fock formation.
     Minimum is close to point  3 DX= -9.84D-03 DF= -8.28D-06 DXR=  1.43D-02 DFR=  1.74D-04 which will be used.
 Gradient too large for Newton-Raphson -- use scaled steepest descent instead.
     Accept linear search using points  1 and  2.
 Gradient too large for Newton-Raphson -- use scaled steepest descent instead.
     Minimum is close to point  4 DX=  1.11D-01 DF= -1.50D-04 DXR=  6.92D-02 DFR=  4.35D-03 which will be used.
 Gradient too large for Newton-Raphson -- use scaled steepest descent instead.
     Accept linear search using points  1 and  2.
 Gradient too large for Newton-Raphson -- use scaled steepest descent instead.
     Minimum is close to point  3 DX=  1.70D-01 DF= -7.79D-05 DXR=  9.59D-02 DFR=  9.12D-03 which will be used.
 Gradient too large for Newton-Raphson -- use scaled steepest descent instead.
     Accept linear search using points  1 and  2.
 Gradient too large for Newton-Raphson -- use scaled steepest descent instead.
     Accept linear search using points  2 and  3.
 Gradient too large for Newton-Raphson -- use scaled steepest descent instead.
     Accept linear search using points  1 and  2.
 Gradient too large for Newton-Raphson -- use scaled steepest descent instead.
 Restarting incremental Fock formation.
     Accept linear search using points  2 and  3.
 Gradient too large for Newton-Raphson -- use scaled steepest descent instead.
     Accept linear search using points  1 and  2.
 Gradient too large for Newton-Raphson -- use scaled steepest descent instead.
     Accept linear search using points  2 and  3.
 Gradient too large for Newton-Raphson -- use scaled steepest descent instead.
     Accept linear search using points  1 and  2.
 Gradient too large for Newton-Raphson -- use scaled steepest descent instead.
     Accept linear search using points  2 and  3.
 Gradient too large for Newton-Raphson -- use scaled steepest descent instead.
     Accept linear search using points  1 and  2.
 Gradient too large for Newton-Raphson -- use scaled steepest descent instead.
     Accept linear search using points  2 and  3.
 Gradient too large for Newton-Raphson -- use scaled steepest descent instead.
     Accept linear search using points  1 and  2.
 Gradient too large for Newton-Raphson -- use scaled steepest descent instead.
 Restarting incremental Fock formation.
     Minimum is close to point  3 DX=  1.65D-03 DF= -9.70D-10 DXR=  9.14D-04 DFR=  8.39D-07 which will be used.
 Gradient too large for Newton-Raphson -- use scaled steepest descent instead.
     Accept linear search using points  1 and  2.
 Gradient too large for Newton-Raphson -- use scaled steepest descent instead.
     Accept linear search using points  2 and  3.
 Gradient too large for Newton-Raphson -- use scaled steepest descent instead.
     Accept linear search using points  1 and  2.
 Gradient too large for Newton-Raphson -- use scaled steepest descent instead.
     Accept linear search using points  2 and  3.
 Gradient too large for Newton-Raphson -- use scaled steepest descent instead.
     Accept linear search using points  1 and  2.
 Gradient too large for Newton-Raphson -- use scaled steepest descent instead.
     Accept linear search using points  2 and  3.
 Gradient too large for Newton-Raphson -- use scaled steepest descent instead.
     Accept linear search using points  1 and  2.
 Gradient too large for Newton-Raphson -- use scaled steepest descent instead.
 Restarting incremental Fock formation.
     Accept linear search using points  2 and  3.
 Gradient too large for Newton-Raphson -- use scaled steepest descent instead.
     Accept linear search using points  1 and  2.
 Gradient too large for Newton-Raphson -- use scaled steepest descent instead.
     Accept linear search using points  2 and  3.
 Gradient too large for Newton-Raphson -- use scaled steepest descent instead.
     Accept linear search using points  1 and  2.
 Gradient too large for Newton-Raphson -- use scaled steepest descent instead.
     Minimum is close to point  3 DX=  1.29D-02 DF= -1.97D-08 DXR=  6.76D-03 DFR=  4.58D-05 which will be used.
 Gradient too large for Newton-Raphson -- use scaled steepest descent instead.
     Accept linear search using points  1 and  2.
 Gradient too large for Newton-Raphson -- use scaled steepest descent instead.
     Accept linear search using points  2 and  3.
     Minimum is close to point  3 DX= -1.20D-01 DF= -1.39D-06 DXR=  6.38D-02 DFR=  4.09D-03 which will be used.
 Gradient too large for Newton-Raphson -- use scaled steepest descent instead.
     Accept linear search using points  1 and  2.
 LinEq1:  Iter=  0 NonCon=     1 RMS=4.60D-05 Max=6.99D-03 NDo=     1
 AX will form     1 AO Fock derivatives at one time.
 LinEq1:  Iter=  1 NonCon=     1 RMS=3.33D-05 Max=2.79D-03 NDo=     1
 LinEq1:  Iter=  2 NonCon=     1 RMS=7.26D-06 Max=8.08D-04 NDo=     1
 LinEq1:  Iter=  3 NonCon=     1 RMS=4.29D-06 Max=3.16D-04 NDo=     1
 LinEq1:  Iter=  4 NonCon=     1 RMS=2.28D-06 Max=3.02D-04 NDo=     1
 LinEq1:  Iter=  5 NonCon=     1 RMS=1.31D-06 Max=1.24D-04 NDo=     1
 LinEq1:  Iter=  6 NonCon=     1 RMS=9.02D-07 Max=5.96D-05 NDo=     1
 LinEq1:  Iter=  7 NonCon=     1 RMS=4.84D-07 Max=2.74D-05 NDo=     1
 LinEq1:  Iter=  8 NonCon=     1 RMS=2.80D-07 Max=2.55D-05 NDo=     1
 LinEq1:  Iter=  9 NonCon=     1 RMS=2.28D-07 Max=2.34D-05 NDo=     1
 LinEq1:  Iter= 10 NonCon=     1 RMS=1.22D-07 Max=9.40D-06 NDo=     1
 LinEq1:  Iter= 11 NonCon=     1 RMS=6.31D-08 Max=4.49D-06 NDo=     1
 LinEq1:  Iter= 12 NonCon=     1 RMS=3.56D-08 Max=2.20D-06 NDo=     1
 LinEq1:  Iter= 13 NonCon=     1 RMS=1.91D-08 Max=1.17D-06 NDo=     1
 LinEq1:  Iter= 14 NonCon=     1 RMS=1.35D-08 Max=1.10D-06 NDo=     1
 LinEq1:  Iter= 15 NonCon=     1 RMS=8.91D-09 Max=8.31D-07 NDo=     1
 LinEq1:  Iter= 16 NonCon=     1 RMS=5.99D-09 Max=4.69D-07 NDo=     1
 LinEq1:  Iter= 17 NonCon=     0 RMS=3.80D-09 Max=2.86D-07 NDo=     1
 Linear equations converged to 4.637D-08 4.637D-07 after    17 iterations.
     Accept linear search using points  1 and  2.
 Restarting incremental Fock formation.
 LinEq1:  Iter=  0 NonCon=     1 RMS=8.71D-06 Max=7.85D-04 NDo=     1
 LinEq1:  Iter=  1 NonCon=     1 RMS=7.74D-06 Max=9.10D-04 NDo=     1
 LinEq1:  Iter=  2 NonCon=     1 RMS=3.96D-06 Max=4.37D-04 NDo=     1
 LinEq1:  Iter=  3 NonCon=     1 RMS=2.32D-06 Max=1.46D-04 NDo=     1
 LinEq1:  Iter=  4 NonCon=     1 RMS=1.40D-06 Max=1.02D-04 NDo=     1
 LinEq1:  Iter=  5 NonCon=     1 RMS=9.36D-07 Max=8.17D-05 NDo=     1
 LinEq1:  Iter=  6 NonCon=     1 RMS=7.20D-07 Max=5.84D-05 NDo=     1
 LinEq1:  Iter=  7 NonCon=     1 RMS=4.75D-07 Max=2.97D-05 NDo=     1
 LinEq1:  Iter=  8 NonCon=     1 RMS=2.73D-07 Max=1.51D-05 NDo=     1
 LinEq1:  Iter=  9 NonCon=     1 RMS=1.56D-07 Max=9.37D-06 NDo=     1
 LinEq1:  Iter= 10 NonCon=     1 RMS=8.65D-08 Max=7.04D-06 NDo=     1
 LinEq1:  Iter= 11 NonCon=     1 RMS=6.00D-08 Max=5.09D-06 NDo=     1
 LinEq1:  Iter= 12 NonCon=     1 RMS=3.95D-08 Max=4.44D-06 NDo=     1
 LinEq1:  Iter= 13 NonCon=     1 RMS=2.36D-08 Max=1.74D-06 NDo=     1
 LinEq1:  Iter= 14 NonCon=     1 RMS=1.45D-08 Max=8.59D-07 NDo=     1
 LinEq1:  Iter= 15 NonCon=     1 RMS=7.45D-09 Max=6.79D-07 NDo=     1
 LinEq1:  Iter= 16 NonCon=     1 RMS=4.74D-09 Max=4.10D-07 NDo=     1
 LinEq1:  Iter= 17 NonCon=     0 RMS=3.41D-09 Max=2.50D-07 NDo=     1
 Linear equations converged to 3.383D-08 3.383D-07 after    17 iterations.
     Minimum is close to point  2 DX=  5.44D-03 DF= -5.28D-10 DXR=  5.41D-03 DFR=  2.92D-05 which will be used.
 LinEq1:  Iter=  0 NonCon=     1 RMS=5.61D-08 Max=5.77D-06 NDo=     1
 LinEq1:  Iter=  1 NonCon=     1 RMS=4.87D-08 Max=5.04D-06 NDo=     1
 LinEq1:  Iter=  2 NonCon=     1 RMS=2.86D-08 Max=2.44D-06 NDo=     1
 LinEq1:  Iter=  3 NonCon=     1 RMS=1.74D-08 Max=1.25D-06 NDo=     1
 LinEq1:  Iter=  4 NonCon=     1 RMS=1.03D-08 Max=6.64D-07 NDo=     1
 LinEq1:  Iter=  5 NonCon=     1 RMS=6.84D-09 Max=7.95D-07 NDo=     1
 LinEq1:  Iter=  6 NonCon=     1 RMS=4.81D-09 Max=4.74D-07 NDo=     1
 LinEq1:  Iter=  7 NonCon=     1 RMS=3.24D-09 Max=2.19D-07 NDo=     1
 LinEq1:  Iter=  8 NonCon=     1 RMS=1.96D-09 Max=1.47D-07 NDo=     1
 LinEq1:  Iter=  9 NonCon=     1 RMS=1.26D-09 Max=9.62D-08 NDo=     1
 LinEq1:  Iter= 10 NonCon=     1 RMS=7.95D-10 Max=5.31D-08 NDo=     1
 LinEq1:  Iter= 11 NonCon=     1 RMS=4.99D-10 Max=2.92D-08 NDo=     1
 LinEq1:  Iter= 12 NonCon=     1 RMS=3.16D-10 Max=2.18D-08 NDo=     1
 LinEq1:  Iter= 13 NonCon=     1 RMS=1.94D-10 Max=1.75D-08 NDo=     1
 LinEq1:  Iter= 14 NonCon=     1 RMS=1.42D-10 Max=1.11D-08 NDo=     1
 LinEq1:  Iter= 15 NonCon=     1 RMS=8.61D-11 Max=7.02D-09 NDo=     1
 LinEq1:  Iter= 16 NonCon=     1 RMS=4.83D-11 Max=3.57D-09 NDo=     1
 LinEq1:  Iter= 17 NonCon=     1 RMS=3.65D-11 Max=3.66D-09 NDo=     1
 LinEq1:  Iter= 18 NonCon=     1 RMS=2.24D-11 Max=2.47D-09 NDo=     1
 LinEq1:  Iter= 19 NonCon=     0 RMS=1.34D-11 Max=1.19D-09 NDo=     1
 Linear equations converged to 2.045D-10 2.045D-09 after    19 iterations.
 SCF Done:  E(UCAM-B3LYP) =  -6911.24626170     a.u. after   48 cycles
            Convg  =    0.7560D-07                   177 Fock formations.
              S**2 =  3.7546                  -V/T =  2.0106
 <Sx>= 0.0000 <Sy>= 0.0000 <Sz>= 1.5000 <S**2>= 3.7546 S= 1.5012
 <L.S>=  0.00000000000    
 Annihilation of the first spin contaminant:
 S**2 before annihilation     3.7546,   after     3.7500
 DoSCS=F DFT=T ScalE2(SS,OS)=  1.000000  1.000000
 Range of M.O.s used for correlation:     1   751
 NBasis=   751 NAE=   194 NBE=   191 NFC=     0 NFV=     0
 NROrb=    751 NOA=   194 NOB=   191 NVA=   557 NVB=   560
   1 Symmetry operations used in ECPInt.
 ECPInt:  NShTT=   35245 NPrTT=  210561 LenC2=   26671 LenP2D=   81714.
 LDataN:  DoStor=T MaxTD1= 5 Len=  102
 Number of processors reduced to  11 by ecpmxn.
 Symmetrizing basis deriv contribution to polar:
 IMax=3 JMax=2 DiffMx= 0.00D+00
 G2DrvN: will do    35 centers at a time, making    2 passes.
 Calling FoFCou, ICntrl=  3107 FMM=T I1Cent=   0 AccDes= 0.00D+00.
 Calling FoFCou, ICntrl=  3107 FMM=T I1Cent=   0 AccDes= 0.00D+00.
 End of G2Drv F.D. properties file   721 does not exist.
 End of G2Drv F.D. properties file   722 does not exist.
 End of G2Drv F.D. properties file   788 does not exist.
          IDoAtm=00110110111111111111111111111111111111111111111111
          IDoAtm=1111111111111111111
          Differentiating once with respect to electric field.
                with respect to dipole field.
          Differentiating once with respect to nuclear coordinates.
 CalDSu exits because no D1Ps are significant.
          There are   198 degrees of freedom in the 1st order CPHF.  IDoFFX=6 NUNeed=     3.
    198 vectors produced by pass  0 Test12= 2.15D-13 1.00D-09 XBig12= 3.55D+02 2.58D+00.
 AX will form    96 AO Fock derivatives at one time.
    198 vectors produced by pass  1 Test12= 2.15D-13 1.00D-09 XBig12= 4.95D+01 5.83D-01.
    198 vectors produced by pass  2 Test12= 2.15D-13 1.00D-09 XBig12= 1.40D+00 1.34D-01.
    198 vectors produced by pass  3 Test12= 2.15D-13 1.00D-09 XBig12= 4.00D-02 2.15D-02.
    198 vectors produced by pass  4 Test12= 2.15D-13 1.00D-09 XBig12= 5.18D-04 2.26D-03.
    198 vectors produced by pass  5 Test12= 2.15D-13 1.00D-09 XBig12= 5.96D-06 2.39D-04.
    155 vectors produced by pass  6 Test12= 2.15D-13 1.00D-09 XBig12= 6.00D-08 1.83D-05.
     87 vectors produced by pass  7 Test12= 2.15D-13 1.00D-09 XBig12= 5.83D-10 1.92D-06.
     29 vectors produced by pass  8 Test12= 2.15D-13 1.00D-09 XBig12= 6.02D-12 2.06D-07.
      3 vectors produced by pass  9 Test12= 2.15D-13 1.00D-09 XBig12= 6.12D-14 1.43D-08.
      3 vectors produced by pass 10 Test12= 2.15D-13 1.00D-09 XBig12= 8.41D-16 2.04D-09.
 InvSVY:  IOpt=1 It=  1 EMax= 2.13D-14
 Solved reduced A of dimension  1465 with   198 vectors.
 Isotropic polarizability for W=    0.000000      363.84 Bohr**3.
 End of Minotr F.D. properties file   721 does not exist.
 End of Minotr F.D. properties file   722 does not exist.
 End of Minotr F.D. properties file   788 does not exist.

 **********************************************************************

            Population analysis using the SCF Density.

 **********************************************************************

 Alpha  occ. eigenvalues -- -482.72584-101.65042-101.60320-101.58946-101.58619
 Alpha  occ. eigenvalues -- -101.58539-101.56742 -61.80805 -56.37769 -56.37457
 Alpha  occ. eigenvalues --  -56.37434 -19.22133 -19.17290 -19.14769 -14.55465
 Alpha  occ. eigenvalues --  -14.42824 -14.42806 -14.40096 -14.38739 -14.37481
 Alpha  occ. eigenvalues --  -14.34982 -10.37786 -10.34476 -10.34389 -10.34374
 Alpha  occ. eigenvalues --  -10.33947 -10.33504 -10.32190 -10.32089 -10.31068
 Alpha  occ. eigenvalues --  -10.30649 -10.30178 -10.30076 -10.29537 -10.29305
 Alpha  occ. eigenvalues --  -10.28450 -10.28221 -10.27799 -10.27788 -10.26654
 Alpha  occ. eigenvalues --  -10.26141 -10.22854  -9.58266  -9.53489  -9.52112
 Alpha  occ. eigenvalues --   -9.51775  -9.51771  -9.50000  -8.59018  -7.34646
 Alpha  occ. eigenvalues --   -7.33787  -7.33653  -7.29979  -7.28896  -7.28888
 Alpha  occ. eigenvalues --   -7.28559  -7.28203  -7.28200  -7.27550  -7.27534
 Alpha  occ. eigenvalues --   -7.27219  -7.27218  -7.27215  -7.27194  -7.26426
 Alpha  occ. eigenvalues --   -7.25443  -7.25424  -6.60694  -6.59569  -6.59544
 Alpha  occ. eigenvalues --   -3.92372  -2.72860  -2.72547  -2.72527  -2.71634
 Alpha  occ. eigenvalues --   -2.71634  -2.62498  -2.61846  -2.61764  -2.14783
 Alpha  occ. eigenvalues --   -1.15885  -1.12217  -1.11547  -1.07512  -1.06122
 Alpha  occ. eigenvalues --   -1.05774  -1.02700  -0.99478  -0.96545  -0.94498
 Alpha  occ. eigenvalues --   -0.93203  -0.93099  -0.91792  -0.91763  -0.90433
 Alpha  occ. eigenvalues --   -0.89731  -0.89165  -0.88860  -0.88148  -0.86617
 Alpha  occ. eigenvalues --   -0.84221  -0.82011  -0.80366  -0.76742  -0.76534
 Alpha  occ. eigenvalues --   -0.76316  -0.74907  -0.74670  -0.74098  -0.69284
 Alpha  occ. eigenvalues --   -0.67991  -0.67625  -0.65592  -0.63997  -0.62240
 Alpha  occ. eigenvalues --   -0.62154  -0.61872  -0.61281  -0.60025  -0.59934
 Alpha  occ. eigenvalues --   -0.59692  -0.59294  -0.57657  -0.56417  -0.55934
 Alpha  occ. eigenvalues --   -0.55606  -0.54672  -0.54065  -0.53522  -0.53410
 Alpha  occ. eigenvalues --   -0.52617  -0.52181  -0.51903  -0.50665  -0.50260
 Alpha  occ. eigenvalues --   -0.49966  -0.49640  -0.49410  -0.49178  -0.48711
 Alpha  occ. eigenvalues --   -0.48452  -0.48224  -0.47968  -0.47819  -0.47492
 Alpha  occ. eigenvalues --   -0.47122  -0.47003  -0.46777  -0.46698  -0.46561
 Alpha  occ. eigenvalues --   -0.46120  -0.45885  -0.45852  -0.44839  -0.44788
 Alpha  occ. eigenvalues --   -0.44131  -0.43953  -0.43780  -0.43633  -0.43555
 Alpha  occ. eigenvalues --   -0.43120  -0.42910  -0.42224  -0.41729  -0.41178
 Alpha  occ. eigenvalues --   -0.40916  -0.40709  -0.39835  -0.39595  -0.38912
 Alpha  occ. eigenvalues --   -0.38575  -0.38523  -0.37590  -0.37505  -0.37459
 Alpha  occ. eigenvalues --   -0.37038  -0.36360  -0.35588  -0.34974  -0.34935
 Alpha  occ. eigenvalues --   -0.34199  -0.33846  -0.33665  -0.32577  -0.32478
 Alpha  occ. eigenvalues --   -0.31522  -0.30874  -0.29982  -0.29283  -0.28603
 Alpha  occ. eigenvalues --   -0.28397  -0.28191  -0.24647  -0.23184
 Alpha virt. eigenvalues --   -0.04947   0.00922   0.01671   0.05332   0.05722
 Alpha virt. eigenvalues --    0.06364   0.06727   0.07880   0.08210   0.08557
 Alpha virt. eigenvalues --    0.09340   0.09761   0.09952   0.10992   0.11102
 Alpha virt. eigenvalues --    0.11623   0.11839   0.12078   0.12419   0.12796
 Alpha virt. eigenvalues --    0.12921   0.13151   0.13607   0.13789   0.13988
 Alpha virt. eigenvalues --    0.14470   0.14564   0.14801   0.14859   0.15094
 Alpha virt. eigenvalues --    0.15273   0.15558   0.15669   0.16512   0.17551
 Alpha virt. eigenvalues --    0.17598   0.18217   0.18469   0.18543   0.19658
 Alpha virt. eigenvalues --    0.19778   0.20338   0.20448   0.21028   0.21728
 Alpha virt. eigenvalues --    0.22036   0.22231   0.22830   0.23078   0.23595
 Alpha virt. eigenvalues --    0.23823   0.24151   0.24348   0.24680   0.25219
 Alpha virt. eigenvalues --    0.25457   0.25746   0.26568   0.26905   0.27636
 Alpha virt. eigenvalues --    0.27880   0.28371   0.28770   0.29022   0.29760
 Alpha virt. eigenvalues --    0.29900   0.31457   0.31760   0.32147   0.32683
 Alpha virt. eigenvalues --    0.33257   0.33567   0.33920   0.34240   0.34855
 Alpha virt. eigenvalues --    0.37075   0.37846   0.38695   0.40451   0.40698
 Alpha virt. eigenvalues --    0.41383   0.41865   0.42438   0.42694   0.43083
 Alpha virt. eigenvalues --    0.43946   0.45003   0.45482   0.46168   0.46489
 Alpha virt. eigenvalues --    0.47753   0.47976   0.48216   0.48357   0.48594
 Alpha virt. eigenvalues --    0.48752   0.49345   0.49431   0.49669   0.49964
 Alpha virt. eigenvalues --    0.50038   0.50186   0.50518   0.51154   0.51422
 Alpha virt. eigenvalues --    0.51818   0.52426   0.53030   0.53457   0.53738
 Alpha virt. eigenvalues --    0.53975   0.54272   0.54521   0.54680   0.55270
 Alpha virt. eigenvalues --    0.55405   0.55904   0.56489   0.57040   0.57206
 Alpha virt. eigenvalues --    0.58221   0.58525   0.58891   0.59566   0.60150
 Alpha virt. eigenvalues --    0.60646   0.60979   0.61727   0.62146   0.62395
 Alpha virt. eigenvalues --    0.62508   0.63291   0.63446   0.64085   0.64435
 Alpha virt. eigenvalues --    0.64555   0.64808   0.65358   0.65474   0.66006
 Alpha virt. eigenvalues --    0.66284   0.67154   0.67376   0.67655   0.67855
 Alpha virt. eigenvalues --    0.68406   0.68790   0.68964   0.69619   0.69746
 Alpha virt. eigenvalues --    0.70043   0.70452   0.70743   0.71536   0.72041
 Alpha virt. eigenvalues --    0.72203   0.73078   0.73716   0.74057   0.74438
 Alpha virt. eigenvalues --    0.74941   0.75241   0.76059   0.76486   0.77244
 Alpha virt. eigenvalues --    0.77559   0.78050   0.78590   0.78677   0.79619
 Alpha virt. eigenvalues --    0.79765   0.80196   0.80591   0.81172   0.82028
 Alpha virt. eigenvalues --    0.83212   0.84127   0.84755   0.85436   0.86051
 Alpha virt. eigenvalues --    0.86451   0.86641   0.87119   0.87310   0.87640
 Alpha virt. eigenvalues --    0.88254   0.88642   0.88957   0.89210   0.89544
 Alpha virt. eigenvalues --    0.89712   0.90582   0.90697   0.90918   0.91028
 Alpha virt. eigenvalues --    0.91420   0.91938   0.92206   0.92392   0.92477
 Alpha virt. eigenvalues --    0.93353   0.93380   0.93643   0.93829   0.94441
 Alpha virt. eigenvalues --    0.94507   0.94663   0.94944   0.95020   0.95400
 Alpha virt. eigenvalues --    0.95815   0.95891   0.96207   0.96543   0.96724
 Alpha virt. eigenvalues --    0.96912   0.97193   0.97482   0.97785   0.98442
 Alpha virt. eigenvalues --    0.98948   0.99060   0.99154   0.99673   0.99866
 Alpha virt. eigenvalues --    1.01147   1.01207   1.01515   1.01880   1.02381
 Alpha virt. eigenvalues --    1.02816   1.03026   1.03244   1.03370   1.03832
 Alpha virt. eigenvalues --    1.04411   1.04823   1.05114   1.05413   1.05739
 Alpha virt. eigenvalues --    1.06293   1.06610   1.07176   1.07467   1.08081
 Alpha virt. eigenvalues --    1.08314   1.08981   1.09427   1.09716   1.09888
 Alpha virt. eigenvalues --    1.10400   1.10959   1.11267   1.11761   1.12601
 Alpha virt. eigenvalues --    1.13636   1.14294   1.14699   1.14956   1.15811
 Alpha virt. eigenvalues --    1.15947   1.16308   1.17435   1.18389   1.18625
 Alpha virt. eigenvalues --    1.18943   1.19399   1.20278   1.20607   1.22638
 Alpha virt. eigenvalues --    1.23226   1.24025   1.24272   1.25397   1.25944
 Alpha virt. eigenvalues --    1.26692   1.27696   1.28294   1.28936   1.29547
 Alpha virt. eigenvalues --    1.31613   1.31942   1.32842   1.33331   1.35513
 Alpha virt. eigenvalues --    1.35733   1.36889   1.37743   1.38166   1.38624
 Alpha virt. eigenvalues --    1.39536   1.40573   1.41560   1.42469   1.43017
 Alpha virt. eigenvalues --    1.43636   1.44720   1.45841   1.46031   1.46609
 Alpha virt. eigenvalues --    1.47087   1.47935   1.48599   1.49287   1.49819
 Alpha virt. eigenvalues --    1.50601   1.50926   1.51579   1.52448   1.53097
 Alpha virt. eigenvalues --    1.53705   1.56253   1.56485   1.56871   1.57689
 Alpha virt. eigenvalues --    1.58643   1.59453   1.61337   1.61821   1.62555
 Alpha virt. eigenvalues --    1.64136   1.64324   1.65242   1.65582   1.66119
 Alpha virt. eigenvalues --    1.66608   1.67920   1.68264   1.68657   1.68956
 Alpha virt. eigenvalues --    1.69649   1.70567   1.71079   1.71522   1.71999
 Alpha virt. eigenvalues --    1.73473   1.73588   1.74674   1.75140   1.76470
 Alpha virt. eigenvalues --    1.77006   1.77796   1.77852   1.79706   1.81241
 Alpha virt. eigenvalues --    1.82211   1.83261   1.85432   1.85702   1.87581
 Alpha virt. eigenvalues --    1.88355   1.88571   1.89891   1.91342   1.92153
 Alpha virt. eigenvalues --    1.92672   1.93756   1.94497   1.94899   1.95549
 Alpha virt. eigenvalues --    1.97072   1.97237   1.97613   1.98106   1.98908
 Alpha virt. eigenvalues --    1.99759   2.00415   2.01650   2.02247   2.02863
 Alpha virt. eigenvalues --    2.02952   2.03625   2.04225   2.05509   2.06675
 Alpha virt. eigenvalues --    2.08137   2.08414   2.09127   2.09245   2.09760
 Alpha virt. eigenvalues --    2.10030   2.10418   2.10913   2.11635   2.12149
 Alpha virt. eigenvalues --    2.12367   2.12742   2.13554   2.13929   2.14376
 Alpha virt. eigenvalues --    2.14940   2.15421   2.16159   2.16447   2.16789
 Alpha virt. eigenvalues --    2.17118   2.17558   2.18226   2.18511   2.19044
 Alpha virt. eigenvalues --    2.19657   2.19976   2.20783   2.20823   2.21636
 Alpha virt. eigenvalues --    2.21946   2.22153   2.22527   2.23815   2.24598
 Alpha virt. eigenvalues --    2.25465   2.26307   2.26510   2.27737   2.28512
 Alpha virt. eigenvalues --    2.29082   2.29542   2.30215   2.32007   2.32102
 Alpha virt. eigenvalues --    2.32781   2.33760   2.34304   2.34522   2.34866
 Alpha virt. eigenvalues --    2.35348   2.35625   2.35822   2.35892   2.36728
 Alpha virt. eigenvalues --    2.37617   2.38190   2.39266   2.39942   2.40336
 Alpha virt. eigenvalues --    2.40981   2.42572   2.43419   2.43997   2.44171
 Alpha virt. eigenvalues --    2.45494   2.47964   2.48723   2.48877   2.49766
 Alpha virt. eigenvalues --    2.50603   2.50784   2.52582   2.53451   2.54058
 Alpha virt. eigenvalues --    2.57423   2.59421   2.63769   2.63968   2.64598
 Alpha virt. eigenvalues --    2.64858   2.65317   2.65981   2.66625   2.67670
 Alpha virt. eigenvalues --    2.67807   2.68439   2.68665   2.68972   2.69535
 Alpha virt. eigenvalues --    2.70292   2.70603   2.71001   2.72030   2.72634
 Alpha virt. eigenvalues --    2.73279   2.73427   2.73773   2.74432   2.75069
 Alpha virt. eigenvalues --    2.75886   2.76206   2.77355   2.77717   2.78518
 Alpha virt. eigenvalues --    2.79121   2.79626   2.80598   2.81224   2.82888
 Alpha virt. eigenvalues --    2.82983   2.84845   2.85846   2.85983   2.86354
 Alpha virt. eigenvalues --    2.87049   2.87314   2.88457   2.88654   2.89085
 Alpha virt. eigenvalues --    2.89564   2.90666   2.91171   2.91326   2.91999
 Alpha virt. eigenvalues --    2.93654   2.93995   2.94632   2.94904   2.95456
 Alpha virt. eigenvalues --    2.96432   2.97349   2.97466   2.98359   2.98651
 Alpha virt. eigenvalues --    2.99510   2.99747   3.00027   3.01181   3.01250
 Alpha virt. eigenvalues --    3.02573   3.04022   3.04952   3.06778   3.08594
 Alpha virt. eigenvalues --    3.13591   3.20396   3.24100   3.24816   3.26399
 Alpha virt. eigenvalues --    3.27213   3.27876   3.28877   3.30174   3.31781
 Alpha virt. eigenvalues --    3.32213   3.34567   3.36440   3.38281   3.39460
 Alpha virt. eigenvalues --    3.43784   3.45219   3.47079   3.48048   3.49488
 Alpha virt. eigenvalues --    3.50507   3.51170   3.52678   3.54072   3.56527
 Alpha virt. eigenvalues --    3.57308   3.57811   3.58967   3.59317   3.60156
 Alpha virt. eigenvalues --    3.61660   3.63328   3.63778   3.65222   3.70415
 Alpha virt. eigenvalues --    5.96446   8.59015
  Beta  occ. eigenvalues -- -482.72584-101.65041-101.60319-101.58944-101.58618
  Beta  occ. eigenvalues -- -101.58538-101.56741 -61.80805 -56.37769 -56.37457
  Beta  occ. eigenvalues --  -56.37434 -19.22128 -19.17054 -19.14738 -14.55465
  Beta  occ. eigenvalues --  -14.42819 -14.42679 -14.39975 -14.38590 -14.37474
  Beta  occ. eigenvalues --  -14.34975 -10.37782 -10.34476 -10.34389 -10.34366
  Beta  occ. eigenvalues --  -10.33946 -10.33504 -10.32181 -10.32089 -10.31067
  Beta  occ. eigenvalues --  -10.30648 -10.30178 -10.30065 -10.29537 -10.29306
  Beta  occ. eigenvalues --  -10.28435 -10.28209 -10.27799 -10.27788 -10.26654
  Beta  occ. eigenvalues --  -10.26129 -10.22853  -9.58265  -9.53488  -9.52110
  Beta  occ. eigenvalues --   -9.51774  -9.51770  -9.49999  -8.59018  -7.34644
  Beta  occ. eigenvalues --   -7.33786  -7.33651  -7.29977  -7.28895  -7.28887
  Beta  occ. eigenvalues --   -7.28556  -7.28200  -7.28198  -7.27548  -7.27532
  Beta  occ. eigenvalues --   -7.27219  -7.27216  -7.27213  -7.27193  -7.26425
  Beta  occ. eigenvalues --   -7.25441  -7.25423  -6.60694  -6.59569  -6.59544
  Beta  occ. eigenvalues --   -3.76903  -2.72860  -2.72547  -2.72527  -2.71634
  Beta  occ. eigenvalues --   -2.71634  -2.45518  -2.45511  -2.45446  -2.14782
  Beta  occ. eigenvalues --   -1.15778  -1.12217  -1.11465  -1.07414  -1.05921
  Beta  occ. eigenvalues --   -1.05649  -1.02414  -0.99419  -0.96522  -0.94431
  Beta  occ. eigenvalues --   -0.93172  -0.93060  -0.91730  -0.91679  -0.90433
  Beta  occ. eigenvalues --   -0.89730  -0.89164  -0.88854  -0.88065  -0.86512
  Beta  occ. eigenvalues --   -0.84221  -0.82003  -0.80328  -0.76736  -0.76526
  Beta  occ. eigenvalues --   -0.76284  -0.74880  -0.74638  -0.74095  -0.69250
  Beta  occ. eigenvalues --   -0.67880  -0.67624  -0.65513  -0.63873  -0.62201
  Beta  occ. eigenvalues --   -0.62049  -0.61869  -0.61180  -0.60022  -0.59775
  Beta  occ. eigenvalues --   -0.59562  -0.58903  -0.57654  -0.56211  -0.55670
  Beta  occ. eigenvalues --   -0.55067  -0.54334  -0.53611  -0.53414  -0.53266
  Beta  occ. eigenvalues --   -0.52547  -0.52137  -0.51848  -0.50657  -0.50022
  Beta  occ. eigenvalues --   -0.49809  -0.49437  -0.49381  -0.49032  -0.48677
  Beta  occ. eigenvalues --   -0.48057  -0.47770  -0.47699  -0.47405  -0.47076
  Beta  occ. eigenvalues --   -0.46756  -0.46582  -0.46481  -0.46212  -0.46123
  Beta  occ. eigenvalues --   -0.45864  -0.44839  -0.44635  -0.44127  -0.43972
  Beta  occ. eigenvalues --   -0.43605  -0.43540  -0.43121  -0.42907  -0.42710
  Beta  occ. eigenvalues --   -0.42011  -0.41297  -0.41023  -0.40964  -0.40301
  Beta  occ. eigenvalues --   -0.39809  -0.38941  -0.38650  -0.38543  -0.37712
  Beta  occ. eigenvalues --   -0.37257  -0.37022  -0.36520  -0.35846  -0.35748
  Beta  occ. eigenvalues --   -0.35450  -0.34561  -0.34136  -0.34053  -0.33822
  Beta  occ. eigenvalues --   -0.32747  -0.32430  -0.32053  -0.30799  -0.30074
  Beta  occ. eigenvalues --   -0.29580  -0.28953  -0.28233  -0.28114  -0.24637
  Beta  occ. eigenvalues --   -0.23177
  Beta virt. eigenvalues --   -0.04950   0.00863   0.01539   0.01866   0.02402
  Beta virt. eigenvalues --    0.02850   0.05353   0.05730   0.06490   0.06853
  Beta virt. eigenvalues --    0.07927   0.08288   0.08778   0.09748   0.09823
  Beta virt. eigenvalues --    0.10110   0.11196   0.11329   0.11664   0.11913
  Beta virt. eigenvalues --    0.12273   0.12430   0.12981   0.13176   0.13307
  Beta virt. eigenvalues --    0.13786   0.13863   0.14123   0.14510   0.14693
  Beta virt. eigenvalues --    0.14905   0.14952   0.15138   0.15360   0.15675
  Beta virt. eigenvalues --    0.15862   0.16590   0.17613   0.17695   0.18259
  Beta virt. eigenvalues --    0.18503   0.18583   0.19781   0.19807   0.20358
  Beta virt. eigenvalues --    0.20511   0.21146   0.21825   0.22121   0.22300
  Beta virt. eigenvalues --    0.23007   0.23488   0.23778   0.24339   0.24393
  Beta virt. eigenvalues --    0.24563   0.25186   0.25348   0.25652   0.25890
  Beta virt. eigenvalues --    0.26834   0.27080   0.27830   0.27927   0.28435
  Beta virt. eigenvalues --    0.28885   0.29225   0.29808   0.30003   0.31473
  Beta virt. eigenvalues --    0.31795   0.32208   0.32822   0.33368   0.33667
  Beta virt. eigenvalues --    0.34003   0.34459   0.35019   0.37154   0.37996
  Beta virt. eigenvalues --    0.38769   0.40544   0.40794   0.41488   0.41945
  Beta virt. eigenvalues --    0.42486   0.42862   0.43140   0.44025   0.45201
  Beta virt. eigenvalues --    0.45545   0.46324   0.46578   0.47814   0.48038
  Beta virt. eigenvalues --    0.48277   0.48403   0.48645   0.48798   0.49401
  Beta virt. eigenvalues --    0.49469   0.49691   0.50009   0.50111   0.50228
  Beta virt. eigenvalues --    0.50550   0.51173   0.51473   0.51881   0.52483
  Beta virt. eigenvalues --    0.53051   0.53490   0.53819   0.53996   0.54420
  Beta virt. eigenvalues --    0.54540   0.54763   0.55352   0.55470   0.55923
  Beta virt. eigenvalues --    0.56554   0.57077   0.57269   0.58268   0.58591
  Beta virt. eigenvalues --    0.58936   0.59650   0.60176   0.60704   0.61026
  Beta virt. eigenvalues --    0.61761   0.62182   0.62448   0.62591   0.63340
  Beta virt. eigenvalues --    0.63505   0.64189   0.64450   0.64689   0.64898
  Beta virt. eigenvalues --    0.65410   0.65564   0.66099   0.66337   0.67208
  Beta virt. eigenvalues --    0.67408   0.67691   0.67882   0.68498   0.68884
  Beta virt. eigenvalues --    0.69024   0.69656   0.69791   0.70092   0.70568
  Beta virt. eigenvalues --    0.70857   0.71637   0.72129   0.72343   0.73139
  Beta virt. eigenvalues --    0.73812   0.74175   0.74499   0.75055   0.75308
  Beta virt. eigenvalues --    0.76216   0.76561   0.77323   0.77700   0.78159
  Beta virt. eigenvalues --    0.78647   0.78819   0.79648   0.79823   0.80447
  Beta virt. eigenvalues --    0.80654   0.81321   0.82102   0.83492   0.84314
  Beta virt. eigenvalues --    0.84880   0.85450   0.86263   0.86605   0.86787
  Beta virt. eigenvalues --    0.87181   0.87542   0.87676   0.88385   0.88754
  Beta virt. eigenvalues --    0.89045   0.89332   0.89599   0.89871   0.90694
  Beta virt. eigenvalues --    0.90905   0.90955   0.91118   0.91591   0.92053
  Beta virt. eigenvalues --    0.92328   0.92413   0.92483   0.93412   0.93450
  Beta virt. eigenvalues --    0.93704   0.93907   0.94466   0.94724   0.94739
  Beta virt. eigenvalues --    0.95013   0.95067   0.95420   0.95910   0.95986
  Beta virt. eigenvalues --    0.96349   0.96616   0.96824   0.96966   0.97216
  Beta virt. eigenvalues --    0.97564   0.97961   0.98473   0.98996   0.99212
  Beta virt. eigenvalues --    0.99379   0.99826   1.00230   1.01351   1.01532
  Beta virt. eigenvalues --    1.01769   1.01971   1.02418   1.02957   1.03132
  Beta virt. eigenvalues --    1.03416   1.03722   1.04123   1.04501   1.05049
  Beta virt. eigenvalues --    1.05237   1.05639   1.06053   1.06570   1.06988
  Beta virt. eigenvalues --    1.07427   1.07901   1.08257   1.08566   1.09166
  Beta virt. eigenvalues --    1.09500   1.09787   1.10238   1.10637   1.11115
  Beta virt. eigenvalues --    1.11446   1.11830   1.13200   1.13685   1.14416
  Beta virt. eigenvalues --    1.14929   1.15251   1.15999   1.16484   1.16707
  Beta virt. eigenvalues --    1.17636   1.18480   1.18935   1.19318   1.19765
  Beta virt. eigenvalues --    1.20372   1.20739   1.22670   1.23348   1.24313
  Beta virt. eigenvalues --    1.24586   1.25452   1.25992   1.27052   1.27839
  Beta virt. eigenvalues --    1.28565   1.29112   1.29598   1.31784   1.32075
  Beta virt. eigenvalues --    1.32995   1.33611   1.35550   1.35847   1.36998
  Beta virt. eigenvalues --    1.37779   1.38262   1.38731   1.39659   1.40609
  Beta virt. eigenvalues --    1.41657   1.42496   1.43081   1.43765   1.44832
  Beta virt. eigenvalues --    1.45865   1.46076   1.46700   1.47137   1.48006
  Beta virt. eigenvalues --    1.48670   1.49415   1.49917   1.50639   1.50973
  Beta virt. eigenvalues --    1.51654   1.52583   1.53273   1.53813   1.56330
  Beta virt. eigenvalues --    1.56541   1.56948   1.57822   1.58684   1.59465
  Beta virt. eigenvalues --    1.61363   1.61972   1.62643   1.64160   1.64332
  Beta virt. eigenvalues --    1.65273   1.65621   1.66137   1.66649   1.67986
  Beta virt. eigenvalues --    1.68366   1.68747   1.69030   1.69691   1.70614
  Beta virt. eigenvalues --    1.71180   1.71568   1.72069   1.73569   1.73690
  Beta virt. eigenvalues --    1.74727   1.75224   1.76578   1.77196   1.77860
  Beta virt. eigenvalues --    1.77923   1.79763   1.81331   1.82408   1.83384
  Beta virt. eigenvalues --    1.85446   1.85711   1.87602   1.88385   1.88593
  Beta virt. eigenvalues --    1.89996   1.91348   1.92215   1.92691   1.93855
  Beta virt. eigenvalues --    1.94525   1.94951   1.95596   1.97126   1.97262
  Beta virt. eigenvalues --    1.97623   1.98224   1.98941   1.99858   2.00479
  Beta virt. eigenvalues --    2.01833   2.02309   2.02920   2.03100   2.03627
  Beta virt. eigenvalues --    2.04374   2.05611   2.06696   2.08212   2.08462
  Beta virt. eigenvalues --    2.09153   2.09317   2.09814   2.10114   2.10427
  Beta virt. eigenvalues --    2.10964   2.11652   2.12167   2.12415   2.12775
  Beta virt. eigenvalues --    2.13618   2.13942   2.14418   2.14965   2.15476
  Beta virt. eigenvalues --    2.16190   2.16471   2.16799   2.17139   2.17618
  Beta virt. eigenvalues --    2.18239   2.18526   2.19076   2.19669   2.19982
  Beta virt. eigenvalues --    2.20828   2.20837   2.21661   2.21975   2.22193
  Beta virt. eigenvalues --    2.22536   2.23822   2.24614   2.25533   2.26332
  Beta virt. eigenvalues --    2.26577   2.27757   2.28552   2.29132   2.29558
  Beta virt. eigenvalues --    2.30246   2.32057   2.32133   2.32834   2.33772
  Beta virt. eigenvalues --    2.34335   2.34571   2.34883   2.35364   2.35647
  Beta virt. eigenvalues --    2.35868   2.35923   2.36791   2.37706   2.38201
  Beta virt. eigenvalues --    2.39290   2.40001   2.40370   2.41036   2.42584
  Beta virt. eigenvalues --    2.43452   2.44063   2.44198   2.45504   2.47979
  Beta virt. eigenvalues --    2.48754   2.48887   2.49770   2.50644   2.50847
  Beta virt. eigenvalues --    2.52584   2.53458   2.54061   2.57425   2.59423
  Beta virt. eigenvalues --    2.63787   2.63983   2.64640   2.64900   2.65374
  Beta virt. eigenvalues --    2.65998   2.66650   2.67717   2.67881   2.68456
  Beta virt. eigenvalues --    2.68703   2.69036   2.69566   2.70337   2.70681
  Beta virt. eigenvalues --    2.71067   2.72078   2.72668   2.73296   2.73463
  Beta virt. eigenvalues --    2.73805   2.74485   2.75099   2.75900   2.76230
  Beta virt. eigenvalues --    2.77370   2.77823   2.78544   2.79157   2.79635
  Beta virt. eigenvalues --    2.80624   2.81247   2.82909   2.82991   2.84857
  Beta virt. eigenvalues --    2.85899   2.85995   2.86384   2.87078   2.87321
  Beta virt. eigenvalues --    2.88480   2.88688   2.89134   2.89595   2.90714
  Beta virt. eigenvalues --    2.91185   2.91398   2.92001   2.93656   2.94064
  Beta virt. eigenvalues --    2.94662   2.94913   2.95468   2.96467   2.97355
  Beta virt. eigenvalues --    2.97476   2.98383   2.98673   2.99529   2.99795
  Beta virt. eigenvalues --    3.00043   3.01184   3.01315   3.02591   3.04090
  Beta virt. eigenvalues --    3.04983   3.06817   3.08654   3.13681   3.20445
  Beta virt. eigenvalues --    3.24146   3.24817   3.26454   3.27221   3.27924
  Beta virt. eigenvalues --    3.28892   3.30219   3.31784   3.32219   3.34568
  Beta virt. eigenvalues --    3.36440   3.38281   3.39462   3.43785   3.45219
  Beta virt. eigenvalues --    3.47079   3.48051   3.49488   3.50507   3.51170
  Beta virt. eigenvalues --    3.52678   3.54073   3.56528   3.57309   3.57812
  Beta virt. eigenvalues --    3.59003   3.59317   3.60157   3.61661   3.63356
  Beta virt. eigenvalues --    3.63797   3.65237   3.70417   5.95592   8.59015
          Condensed to atoms (all electrons):
          Atomic-Atomic Spin Densities.
 Mulliken charges and spin densities:
               1          2
     1  Li   0.587166   0.000529
     2  N   -0.503803   0.001126
     3  C    0.063298   0.003918
     4  Cl   0.059896   0.001082
     5  N   -0.419402   0.002183
     6  C    0.000388   0.005645
     7  Cl  -0.033880   0.000960
     8  N   -0.384589   0.002149
     9  C   -0.000420   0.008106
    10  Cl  -0.041283   0.001224
    11  N   -0.487462   0.044292
    12  C    0.060886  -0.001344
    13  Cl   0.069522   0.000688
    14  N   -0.519527   0.059348
    15  C    0.016751  -0.003694
    16  Cl  -0.028137   0.000612
    17  N   -0.506580   0.046155
    18  C    0.052381  -0.002062
    19  Cl   0.000790   0.000894
    20  C    0.237048   0.001648
    21  H    0.148780   0.000697
    22  C    0.169610   0.003233
    23  H    0.128263   0.000311
    24  C    0.171766   0.003673
    25  H    0.105527   0.000351
    26  Co   0.793629   2.733491
    27  C    0.193101  -0.000062
    28  C   -0.191090   0.000089
    29  O   -0.492626   0.001336
    30  C   -0.343347   0.000067
    31  H    0.157946  -0.000004
    32  H    0.186775   0.000007
    33  H    0.130210  -0.000001
    34  H    0.148540   0.000009
    35  H    0.102028  -0.000008
    36  H    0.100618   0.000162
    37  N   -0.380550  -0.000001
    38  C   -0.071790   0.000001
    39  C   -0.341972  -0.000000
    40  H    0.169334   0.000000
    41  H    0.143534   0.000001
    42  H    0.142540   0.000000
    43  H    0.135657   0.000000
    44  H    0.123589   0.000000
    45  C   -0.063348  -0.000001
    46  C   -0.367891   0.000029
    47  H    0.143124  -0.000000
    48  H    0.135064   0.000002
    49  H    0.127888   0.000000
    50  H    0.187683   0.000044
    51  H    0.134644  -0.000002
    52  C   -0.081546   0.000011
    53  C   -0.368974   0.000036
    54  H    0.168797   0.000010
    55  H    0.137612   0.000002
    56  H    0.185262  -0.000025
    57  H    0.158604  -0.000126
    58  H    0.117897  -0.000000
    59  C   -0.075108   0.000029
    60  C   -0.349853   0.000001
    61  H    0.182119  -0.000012
    62  H    0.144567   0.000002
    63  H    0.164281  -0.000004
    64  H    0.115923  -0.000000
    65  H    0.129835  -0.000001
    66  Br  -0.223389   0.000036
    67  C    0.739551  -0.000883
    68  O   -0.492641   0.010100
    69  O   -0.603217   0.073945
 Sum of Mulliken charges =   0.00000   3.00000
 Mulliken charges and spin densities with hydrogens summed into heavy atoms:
               1          2
     1  Li   0.587166   0.000529
     2  N   -0.503803   0.001126
     3  C    0.063298   0.003918
     4  Cl   0.059896   0.001082
     5  N   -0.419402   0.002183
     6  C    0.000388   0.005645
     7  Cl  -0.033880   0.000960
     8  N   -0.384589   0.002149
     9  C   -0.000420   0.008106
    10  Cl  -0.041283   0.001224
    11  N   -0.487462   0.044292
    12  C    0.060886  -0.001344
    13  Cl   0.069522   0.000688
    14  N   -0.519527   0.059348
    15  C    0.016751  -0.003694
    16  Cl  -0.028137   0.000612
    17  N   -0.506580   0.046155
    18  C    0.052381  -0.002062
    19  Cl   0.000790   0.000894
    20  C    0.385827   0.002345
    22  C    0.297872   0.003543
    24  C    0.277293   0.004024
    26  Co   0.793629   2.733491
    27  C    0.293719   0.000099
    28  C    0.153631   0.000092
    29  O   -0.492626   0.001336
    30  C    0.037432   0.000068
    37  N   -0.380550  -0.000001
    38  C    0.241078   0.000002
    39  C    0.059815   0.000000
    45  C    0.214840   0.000001
    46  C    0.082325   0.000071
    52  C    0.224863   0.000023
    53  C    0.092789  -0.000115
    59  C    0.251577   0.000019
    60  C    0.060186  -0.000005
    66  Br  -0.223389   0.000036
    67  C    0.739551  -0.000883
    68  O   -0.492641   0.010100
    69  O   -0.603217   0.073945
 Electronic spatial extent (au):  <R**2>=          29971.4170
 Charge=              0.0000 electrons
 Dipole moment (field-independent basis, Debye):
    X=              3.2093    Y=              0.7816    Z=            -10.3910  Tot=             10.9034
 Quadrupole moment (field-independent basis, Debye-Ang):
   XX=           -341.9602   YY=           -142.1702   ZZ=           -284.7342
   XY=             23.1013   XZ=             15.6734   YZ=             59.0546
 Traceless Quadrupole moment (field-independent basis, Debye-Ang):
   XX=            -85.6720   YY=            114.1180   ZZ=            -28.4460
   XY=             23.1013   XZ=             15.6734   YZ=             59.0546
 Octapole moment (field-independent basis, Debye-Ang**2):
  XXX=            194.8905  YYY=           -369.5953  ZZZ=            -81.2179  XYY=            -66.4205
  XXY=            -51.3774  XXZ=             60.9418  XZZ=            -53.4437  YZZ=           -260.0057
  YYZ=           -449.3115  XYZ=            -79.6551
 Hexadecapole moment (field-independent basis, Debye-Ang**3):
 XXXX=         -12495.6044 YYYY=         -12162.9589 ZZZZ=          -6839.8197 XXXY=          -2179.1765
 XXXZ=           -790.9910 YYYX=          -1342.0108 YYYZ=           1602.4726 ZZZX=           -724.7102
 ZZZY=           -235.7956 XXYY=          -4925.3242 XXZZ=          -3229.3667 YYZZ=          -2583.5209
 XXYZ=           -403.0865 YYXZ=            139.9576 ZZXY=           -542.6826
 N-N= 7.624970740911D+03 E-N=-3.165147393427D+04  KE= 6.838776112982D+03
  Exact polarizability: 361.162  16.485 392.906   2.256  12.826 337.459
 Approx polarizability: 428.566   4.388 427.789 -13.139  -1.181 432.436
                          Isotropic Fermi Contact Couplings
        Atom                 a.u.       MegaHertz       Gauss      10(-4) cm-1
     1  Li(7)              0.00012       0.06811       0.02430       0.02272
     2  N(14)              0.00133       0.14370       0.05127       0.04793
     3  C(13)              0.00426       1.59690       0.56981       0.53267
     4  Cl(35)             0.00081       0.11884       0.04240       0.03964
     5  N(14)              0.00049       0.05298       0.01891       0.01767
     6  C(13)              0.00335       1.25599       0.44817       0.41895
     7  Cl(35)             0.00047       0.06813       0.02431       0.02272
     8  N(14)             -0.00005      -0.00525      -0.00187      -0.00175
     9  C(13)              0.00451       1.68867       0.60256       0.56328
    10  Cl(35)             0.00047       0.06920       0.02469       0.02308
    11  N(14)              0.06750       7.27004       2.59413       2.42503
    12  C(13)              0.00065       0.24529       0.08753       0.08182
    13  Cl(35)             0.00080       0.11634       0.04151       0.03881
    14  N(14)              0.06922       7.45513       2.66017       2.48676
    15  C(13)              0.00116       0.43579       0.15550       0.14536
    16  Cl(35)             0.00164       0.23935       0.08541       0.07984
    17  N(14)              0.06026       6.49031       2.31591       2.16494
    18  C(13)              0.00116       0.43601       0.15558       0.14544
    19  Cl(35)             0.00194       0.28381       0.10127       0.09467
    20  C(13)              0.00205       0.76727       0.27378       0.25593
    21  H(1)               0.00020       0.30455       0.10867       0.10159
    22  C(13)              0.00166       0.62224       0.22203       0.20756
    23  H(1)               0.00009       0.12933       0.04615       0.04314
    24  C(13)              0.00247       0.92730       0.33088       0.30931
    25  H(1)               0.00014       0.21363       0.07623       0.07126
    26  Co(59)             0.00000       0.00138       0.00049       0.00046
    27  C(13)              0.00008       0.03068       0.01095       0.01023
    28  C(13)              0.00012       0.04499       0.01605       0.01501
    29  O(17)              0.00066      -0.13291      -0.04743      -0.04433
    30  C(13)              0.00004       0.01422       0.00507       0.00474
    31  H(1)              -0.00000      -0.00226      -0.00081      -0.00075
    32  H(1)               0.00001       0.00773       0.00276       0.00258
    33  H(1)               0.00000       0.00262       0.00094       0.00088
    34  H(1)              -0.00000      -0.00656      -0.00234      -0.00219
    35  H(1)              -0.00000      -0.00571      -0.00204      -0.00191
    36  H(1)               0.00006       0.08778       0.03132       0.02928
    37  N(14)              0.00001       0.00065       0.00023       0.00022
    38  C(13)              0.00000       0.00052       0.00018       0.00017
    39  C(13)              0.00000       0.00008       0.00003       0.00003
    40  H(1)               0.00000       0.00009       0.00003       0.00003
    41  H(1)               0.00000       0.00027       0.00010       0.00009
    42  H(1)               0.00000       0.00008       0.00003       0.00003
    43  H(1)              -0.00000      -0.00000      -0.00000      -0.00000
    44  H(1)              -0.00000      -0.00002      -0.00001      -0.00001
    45  C(13)              0.00000       0.00020       0.00007       0.00007
    46  C(13)              0.00004       0.01418       0.00506       0.00473
    47  H(1)              -0.00000      -0.00004      -0.00001      -0.00001
    48  H(1)               0.00000       0.00109       0.00039       0.00036
    49  H(1)              -0.00000      -0.00007      -0.00002      -0.00002
    50  H(1)              -0.00000      -0.00296      -0.00106      -0.00099
    51  H(1)              -0.00000      -0.00079      -0.00028      -0.00026
    52  C(13)              0.00000       0.00069       0.00025       0.00023
    53  C(13)             -0.00003      -0.01040      -0.00371      -0.00347
    54  H(1)               0.00000       0.00030       0.00011       0.00010
    55  H(1)               0.00000       0.00156       0.00056       0.00052
    56  H(1)              -0.00000      -0.00155      -0.00055      -0.00052
    57  H(1)               0.00001       0.00762       0.00272       0.00254
    58  H(1)               0.00000       0.00085       0.00030       0.00028
    59  C(13)              0.00001       0.00221       0.00079       0.00074
    60  C(13)             -0.00000      -0.00053      -0.00019      -0.00018
    61  H(1)              -0.00000      -0.00215      -0.00077      -0.00072
    62  H(1)               0.00000       0.00117       0.00042       0.00039
    63  H(1)               0.00000       0.00034       0.00012       0.00011
    64  H(1)              -0.00000      -0.00002      -0.00001      -0.00001
    65  H(1)              -0.00000      -0.00065      -0.00023      -0.00022
    66  Br(79)            -0.00000      -0.00077      -0.00027      -0.00026
    67  C(13)              0.00273       1.02448       0.36556       0.34173
    68  O(17)              0.00389      -0.78623      -0.28055      -0.26226
    69  O(17)              0.07235     -14.61908      -5.21645      -4.87640
 --------------------------------------------------------
       Center         ----  Spin Dipole Couplings  ----
                      3XX-RR        3YY-RR        3ZZ-RR
 --------------------------------------------------------
     1   Atom       -0.001982      0.002075     -0.000093
     2   Atom       -0.008469      0.009255     -0.000786
     3   Atom       -0.003602      0.007634     -0.004031
     4   Atom       -0.002940      0.006093     -0.003153
     5   Atom       -0.002277      0.007774     -0.005497
     6   Atom        0.001701     -0.002076      0.000375
     7   Atom        0.000276      0.000989     -0.001265
     8   Atom        0.010308     -0.003727     -0.006581
     9   Atom        0.006255      0.003116     -0.009371
    10   Atom        0.005923      0.002227     -0.008150
    11   Atom       -0.067261      0.110023     -0.042762
    12   Atom       -0.005417      0.020039     -0.014621
    13   Atom       -0.001815      0.005047     -0.003232
    14   Atom        0.104143     -0.009193     -0.094950
    15   Atom        0.015638     -0.011128     -0.004511
    16   Atom        0.001386     -0.009378      0.007992
    17   Atom        0.015773     -0.015668     -0.000106
    18   Atom        0.026693     -0.014786     -0.011907
    19   Atom        0.022712     -0.009487     -0.013225
    20   Atom       -0.014794      0.010054      0.004740
    21   Atom       -0.010210     -0.000198      0.010408
    22   Atom        0.009491     -0.003740     -0.005751
    23   Atom        0.000553     -0.009213      0.008660
    24   Atom       -0.014001      0.010032      0.003969
    25   Atom       -0.012068      0.008091      0.003976
    26   Atom       -0.076476     -0.230547      0.307023
    27   Atom        0.000957     -0.000740     -0.000217
    28   Atom       -0.001525      0.000314      0.001211
    29   Atom       -0.001548     -0.000362      0.001910
    30   Atom        0.002253     -0.002285      0.000033
    31   Atom       -0.003074      0.001467      0.001607
    32   Atom       -0.001233     -0.000600      0.001833
    33   Atom        0.004236     -0.002920     -0.001317
    34   Atom        0.001397     -0.002760      0.001363
    35   Atom        0.001239     -0.001132     -0.000106
    36   Atom        0.001305      0.000770     -0.002075
    37   Atom       -0.001808      0.003785     -0.001977
    38   Atom       -0.001167      0.002342     -0.001176
    39   Atom       -0.000629      0.001341     -0.000712
    40   Atom       -0.001254      0.002362     -0.001107
    41   Atom       -0.001137      0.002200     -0.001063
    42   Atom       -0.000523      0.001046     -0.000523
    43   Atom       -0.000466      0.001161     -0.000695
    44   Atom       -0.000560      0.001169     -0.000608
    45   Atom       -0.001216      0.002347     -0.001131
    46   Atom       -0.001482      0.002254     -0.000772
    47   Atom       -0.000780      0.001646     -0.000866
    48   Atom       -0.001000      0.001903     -0.000903
    49   Atom       -0.000967      0.001294     -0.000327
    50   Atom       -0.001651      0.002404     -0.000753
    51   Atom       -0.001815      0.002480     -0.000666
    52   Atom       -0.003158      0.006368     -0.003209
    53   Atom       -0.004290      0.007987     -0.003697
    54   Atom       -0.004615      0.008709     -0.004094
    55   Atom       -0.001880      0.003951     -0.002071
    56   Atom       -0.003348      0.007754     -0.004406
    57   Atom       -0.007591      0.012528     -0.004938
    58   Atom       -0.002563      0.004163     -0.001600
    59   Atom       -0.001426      0.004070     -0.002644
    60   Atom       -0.000198      0.001695     -0.001497
    61   Atom       -0.001770      0.005159     -0.003389
    62   Atom       -0.001810      0.005071     -0.003261
    63   Atom        0.000573      0.001095     -0.001668
    64   Atom       -0.000233      0.001294     -0.001061
    65   Atom       -0.000198      0.001301     -0.001103
    66   Atom       -0.000558      0.000698     -0.000141
    67   Atom       -0.012565     -0.009163      0.021728
    68   Atom       -0.007411      0.007046      0.000365
    69   Atom       -0.100319     -0.121599      0.221918
 --------------------------------------------------------
                        XY            XZ            YZ
 --------------------------------------------------------
     1   Atom        0.000592      0.000382      0.002837
     2   Atom        0.002970      0.001599      0.011720
     3   Atom        0.002918      0.002820      0.003097
     4   Atom        0.003515      0.003422      0.005104
     5   Atom        0.011697     -0.005499     -0.007286
     6   Atom        0.006146     -0.005988     -0.000131
     7   Atom        0.006689     -0.003336     -0.000200
     8   Atom       -0.014000     -0.009307      0.005818
     9   Atom       -0.002787     -0.000064     -0.000763
    10   Atom       -0.003102     -0.001868      0.000947
    11   Atom        0.036189      0.025528      0.080324
    12   Atom        0.019752     -0.002677      0.001405
    13   Atom        0.012460     -0.009429     -0.005636
    14   Atom       -0.101595     -0.026091      0.013537
    15   Atom       -0.021913      0.015589     -0.007661
    16   Atom       -0.008408      0.013931     -0.005548
    17   Atom        0.080697     -0.083618     -0.055012
    18   Atom        0.008329     -0.012946     -0.006713
    19   Atom       -0.006695     -0.007676     -0.001423
    20   Atom       -0.004313     -0.001497      0.021715
    21   Atom       -0.005576     -0.008550      0.016979
    22   Atom       -0.014248     -0.018593      0.012380
    23   Atom       -0.009619     -0.017493      0.010997
    24   Atom        0.010254     -0.009307     -0.017112
    25   Atom        0.000006     -0.000706     -0.019051
    26   Atom       -0.012260      0.137016     -0.038173
    27   Atom        0.004906      0.005021      0.004143
    28   Atom        0.002160      0.002404      0.003505
    29   Atom        0.015619      0.016220      0.008172
    30   Atom        0.001968      0.003854      0.001431
    31   Atom        0.001589      0.001676      0.004968
    32   Atom        0.001284      0.002013      0.002445
    33   Atom        0.001653      0.003690      0.000810
    34   Atom        0.000921      0.004148      0.000896
    35   Atom        0.001364      0.002172      0.000983
    36   Atom        0.004969      0.002942      0.002759
    37   Atom        0.000998     -0.000047     -0.000181
    38   Atom        0.000528      0.000070      0.000499
    39   Atom        0.000465      0.000045      0.000209
    40   Atom        0.000801      0.000229      0.001084
    41   Atom       -0.000006     -0.000002      0.000512
    42   Atom        0.000332      0.000067      0.000332
    43   Atom        0.000673      0.000052      0.000149
    44   Atom        0.000291      0.000001      0.000012
[...]
 2,-0.00005953,-0.00006488,0.00011477,-0.00008222,-0.00012883,0.0010866
 1,-0.00004775,0.00187257,0.00035929,0.00028342,0.00006190,-0.00017120,
 -0.00006923,0.00017535,-0.00124845,0.00112264,-0.00007370,0.00052808,-
 0.00031386,-0.00006398,0.00064374,0.00048237,0.00072320,-0.00212846,0.
 00035277,-0.00027280,-0.00003096,0.00054642,0.00009949,0.00035609,-0.0
 0022210,-0.00007828,-0.00047669,-0.00002847,0.00063383,0.00303623,0.00
 184239,0.44119097,0.,0.,0.,0.,0.,0.,-0.00046583,-0.00050645,0.00013401
 ,0.00026078,0.00067068,0.00024966,0.,0.,0.,0.00030365,-0.00104334,0.00
 052481,-0.00073582,-0.00030564,0.00001099,0.,0.,0.,0.00006382,0.000058
 27,-0.00031073,0.00080103,-0.00059755,0.00034816,0.00015028,0.00150464
 ,0.00161753,-0.00055065,-0.00115941,-0.00033709,-0.00016972,0.00018079
 ,0.00039989,0.00335703,-0.00247602,0.00288902,-0.00028550,0.00022806,-
 0.00221503,-0.00002997,-0.00009308,0.00057472,-0.00214283,-0.00240108,
 0.00228468,0.00169726,-0.00003323,0.00055529,-0.00066447,-0.00002928,-
 0.00037511,0.00089140,-0.00069107,-0.00200225,0.00001687,0.00009536,0.
 00002598,-0.00187796,0.00094125,0.00029277,-0.00036404,0.00120494,0.00
 079426,-0.00006135,0.00204128,-0.00138475,0.00019732,0.00020742,0.0001
 2043,-0.00029370,0.00369840,-0.02126511,-0.02891278,-0.02544377,-0.020
 49166,0.00112290,-0.00097078,-0.00068794,-0.03902399,-0.10754466,0.026
 75965,0.00399061,0.00617281,0.00361041,0.00035073,-0.00080603,-0.00202
 063,0.00062581,0.00071828,0.00237501,-0.00056856,0.00030709,-0.0002235
 1,0.00137205,-0.00048102,0.00078216,0.00232883,-0.00242850,0.00143955,
 0.00238222,0.00265210,0.00085419,-0.00021010,0.00063150,-0.00098470,-0
 .00001887,-0.00031637,0.00015922,-0.00004337,0.00002960,-0.00007469,0.
 00015993,-0.00018399,0.00004167,-0.00006318,0.00005534,-0.00004006,0.0
 0002839,-0.00010076,0.00001862,-0.00003185,-0.00010660,0.00004197,-0.0
 0001458,0.00011341,-0.00008702,-0.00017102,-0.00025367,0.00083439,0.00
 010470,0.00011396,-0.00012661,-0.00000146,-0.00006330,-0.00004163,-0.0
 0002536,0.00010479,-0.00016907,-0.00001530,0.00000865,-0.00008482,-0.0
 0003277,0.00019099,0.00015905,-0.00004661,0.00000482,0.00005054,-0.000
 09985,0.00050023,0.00050286,0.00049040,-0.00110262,-0.00007826,0.00022
 200,0.00010728,0.00000661,0.00006273,0.00031609,-0.00027002,0.00003524
 ,0.00093384,-0.00004081,0.00135052,-0.00132434,0.00067091,-0.00011058,
 0.00015367,-0.00010690,0.00010731,-0.00123817,0.00099780,-0.00008209,0
 .00047326,-0.00033937,-0.00006584,0.00061427,0.00054184,0.00047653,-0.
 00174219,0.00031838,-0.00027692,-0.00003845,0.00054050,0.00009634,0.00
 036732,-0.00020845,-0.00007278,-0.00044485,-0.00002460,0.00015271,0.00
 174287,0.00225038,0.15502577,0.40379991,0.,0.,0.,0.,0.,0.,-0.00053337,
 -0.00052449,0.00009939,0.00047236,0.00100546,0.00023769,0.,0.,0.,0.001
 40204,-0.00055961,0.00004172,-0.00134617,-0.00045868,0.00022425,0.,0.,
 0.,-0.00007990,-0.00002400,-0.00076868,0.00117795,-0.00079735,0.000476
 89,0.00092608,0.00256898,0.00211180,-0.00173678,-0.00164874,0.00076057
 ,0.00060642,0.00056223,-0.00000655,0.00520622,-0.00219398,0.00131737,-
 0.00098363,0.00066227,-0.00323991,0.00015755,-0.00004892,0.00063837,-0
 .00203370,-0.00220622,0.00485831,0.00335069,0.00035973,-0.00087277,-0.
 00089880,-0.00005100,0.00049702,0.00095509,-0.00130548,-0.00260137,0.0
 0000007,-0.00007132,-0.00011548,-0.00187434,0.00126256,0.00219725,-0.0
 0097943,0.00066513,0.00215441,-0.00056829,0.00315009,-0.00184402,0.000
 06674,0.00005479,0.00004041,-0.01396872,-0.00296077,-0.03357379,-0.004
 48879,-0.01746541,0.02628909,-0.01011058,-0.01327839,-0.00033123,0.015
 30912,0.03999177,-0.13150015,-0.00020593,-0.00367034,0.00031615,0.0009
 3510,-0.00247068,0.00103975,-0.00132024,-0.00113310,-0.00370506,0.0016
 8794,0.00044590,-0.00073862,-0.00618911,0.00320558,-0.00183241,-0.0002
 6806,0.00251791,-0.00179344,-0.00451636,-0.00216854,-0.00430705,-0.000
 26528,-0.00037606,-0.00047135,0.00013814,0.00013327,0.00078080,-0.0000
 7011,-0.00000224,-0.00015994,0.00023606,-0.00004846,0.00034490,-0.0000
 2444,0.00000924,-0.00007065,0.00001396,-0.00019215,-0.00003990,0.00001
 652,0.00000895,0.00012938,-0.00001674,0.00006748,-0.00002400,0.0000510
 5,-0.00006003,0.00003585,0.00002249,-0.00001328,-0.00000163,-0.0000658
 2,0.00001416,0.00003391,0.00006201,-0.00005407,-0.00002795,-0.00001743
 ,-0.00008543,-0.00002061,-0.00001544,0.00031689,0.00001239,-0.00006096
 ,0.00005168,-0.00003445,0.00034284,0.00024940,0.00004184,-0.00035319,0
 .00018654,-0.00041734,-0.00000823,0.00031930,-0.00026082,-0.00003177,-
 0.00010538,0.00001088,0.00005544,0.00035536,0.00021508,0.00001963,0.00
 088576,0.00096304,0.00021430,-0.00079739,-0.00004934,-0.00011245,0.000
 32782,-0.00014492,0.00012906,-0.00001178,0.00017616,-0.00003983,0.0005
 0604,0.00022250,0.00033595,0.00055594,0.00014465,0.00012106,0.00003377
 ,0.00016689,-0.00011679,-0.00003289,-0.00005787,-0.00014189,-0.0002337
 4,0.00001211,0.00359451,0.00490562,-0.00226092,0.18250646,-0.01691938,
 1.05542117,0.,0.,0.,0.,0.,0.,0.00016409,0.00016362,-0.00005473,-0.0000
 8802,-0.00022690,-0.00008471,0.,0.,0.,-0.00017818,0.00031308,-0.000147
 12,0.00031304,0.00009880,-0.00001133,0.,0.,0.,0.00014286,-0.00011233,0
 .00012448,-0.00028039,0.00019787,-0.00014904,-0.00020401,-0.00052924,-
 0.00085622,0.00011985,0.00037676,0.00016091,0.00009091,-0.00003245,-0.
 00013608,-0.00070972,0.00057907,-0.00042244,0.00003889,0.00002062,0.00
 055543,0.00003266,0.00000671,-0.00030485,0.00065482,0.00084842,-0.0008
 8347,-0.00094667,0.00029752,-0.00015954,0.00043084,-0.00019639,0.00008
 235,-0.00033926,0.00023127,0.00060927,-0.00002309,-0.00000902,-0.00003
 356,0.00071767,-0.00042749,0.00019762,0.00036959,-0.00027447,0.0002193
 4,0.00008907,-0.00081251,0.00049973,-0.00004839,-0.00006120,-0.0000105
 0,0.00140652,-0.00227045,0.00584927,0.00284164,0.00457233,0.00099094,-
 0.00148399,0.00187165,-0.00061482,0.01109712,-0.02588589,0.03426543,-0
 .00347556,0.00125274,-0.00211231,0.00029563,-0.00075002,0.00025463,-0.
 00125369,-0.00143318,0.00042739,-0.00048895,-0.00064710,0.00047639,-0.
 00207903,-0.00235464,0.00185051,-0.00089357,-0.00099880,0.00092181,0.0
 0022985,-0.00003957,0.00052140,0.00018317,-0.00011305,0.00023041,-0.00
 001351,0.00005736,-0.00009741,0.00001384,-0.00001233,0.00002170,-0.000
 13311,0.00004001,-0.00006111,0.00003506,-0.00005409,0.00002482,-0.0000
 1558,0.00005025,-0.00000140,0.00002183,0.00004047,-0.00003250,0.000015
 39,-0.00002820,0.00002436,0.00007437,0.00003185,-0.00015925,-0.0000382
 8,-0.00001849,0.00002093,0.00001416,0.00003801,-0.00001082,0.00000204,
 -0.00003594,0.00004079,0.00000956,0.00000572,0.00001653,0.00000158,-0.
 00005056,-0.00003417,0.00002694,-0.00000516,0.00000270,-0.00028662,-0.
 00018891,0.00001036,0.00015113,0.00021227,-0.00006646,-0.00003577,-0.0
 0002456,-0.00000033,0.00003049,-0.00000944,0.00000152,0.00002480,-0.00
 025428,0.00004669,-0.00038772,-0.00006098,-0.00000262,-0.00003998,-0.0
 0000242,0.00002448,-0.00007343,0.00030867,-0.00024691,0.00002398,-0.00
 011966,0.00004371,0.00002899,-0.00016612,-0.00011711,-0.00023420,0.000
 41995,-0.00001692,0.00006672,0.00000441,-0.00016727,-0.00000267,-0.000
 08656,0.00006855,0.00002329,0.00015987,-0.00000183,-0.00012748,-0.0018
 7196,-0.00000722,-0.09880516,-0.00416151,-0.02179138,0.08364025,0.,0.,
 0.,0.,0.,0.,0.00007895,0.00012258,-0.00000057,-0.00001932,-0.00007902,
 -0.00005416,0.,0.,0.,-0.00000122,0.00022373,-0.00011554,0.00010902,0.0
 0006175,0.00001288,0.,0.,0.,-0.00004720,0.00000451,0.00004599,-0.00012
 158,0.00010662,-0.00004773,0.00006096,-0.00009806,-0.00027515,-0.00010
 836,0.00015104,0.00031793,0.00012879,-0.00001976,-0.00018133,-0.000627
 55,0.00051232,-0.00051889,0.00007365,-0.00007132,0.00040697,0.00001103
 ,0.00003601,-0.00007257,0.00033737,0.00053690,-0.00031890,-0.00012743,
 -0.00009704,-0.00012448,0.00000017,0.00006695,0.00013891,-0.00013228,0
 .00001994,0.00022476,-0.00000099,-0.00004296,-0.00001853,0.00040640,-0
 .00015638,-0.00023575,-0.00003281,-0.00023989,-0.00012948,-0.00006011,
 -0.00033970,0.00025732,-0.00004819,-0.00004851,-0.00003516,-0.00071347
 ,-0.00059167,0.00331112,0.00803331,0.00214655,0.00440457,0.00079520,0.
 00089075,-0.00045270,-0.02629826,-0.01369479,0.05473896,0.00021924,-0.
 00132670,0.00074610,-0.00130058,-0.00007844,-0.00060060,-0.00091813,-0
 .00323412,-0.00020853,-0.00002681,0.00008082,-0.00003061,-0.00137804,0
 .00036603,-0.00082305,-0.00004446,0.00079044,-0.00044563,-0.00046076,0
 .00011446,-0.00004663,0.00005714,-0.00020480,0.00031241,-0.00000890,0.
 00009825,-0.00012936,0.00002979,-0.00001499,0.00002973,-0.00011104,0.0
 0004736,-0.00009340,0.00002483,-0.00002302,0.00002527,-0.00001900,0.00
 007257,-0.00000432,0.00000965,0.00003622,-0.00003445,0.00001033,-0.000
 04325,0.00004291,0.00005466,0.00010973,-0.00023914,-0.00003231,-0.0000
 3996,0.00004032,0.00000375,0.00001616,0.00000440,0.00000296,-0.0000278
 6,0.00004053,0.00000494,-0.00000628,0.00002867,0.00001148,-0.00004359,
 -0.00004652,0.00001257,0.00000352,-0.00001374,-0.00006029,-0.00009322,
 -0.00009931,0.00002022,0.00018565,0.00004942,-0.00005330,-0.00002951,0
 .00000872,-0.00000542,-0.00007059,0.00004790,-0.00001943,-0.00020766,0
 .00000578,-0.00031386,0.00001359,-0.00013873,-0.00003833,0.00006434,0.
 00002371,0.00001100,0.00030694,-0.00025978,0.00000141,-0.00013394,0.00
 002642,0.00002330,-0.00015399,-0.00014664,-0.00018729,0.00042521,-0.00
 001566,0.00008417,0.00001191,-0.00011726,-0.00001919,-0.00009125,0.000
 07160,0.00004916,0.00012973,-0.00003355,-0.00215610,-0.00365952,-0.000
 27883,-0.00226443,-0.12060923,0.11356597,0.03586091,0.11157951,0.,0.,0
 .,0.,0.,0.,0.00032773,0.00026741,-0.00012500,-0.00029373,-0.00061338,-
 0.00013658,0.,0.,0.,-0.00078802,0.00020378,0.00003319,0.00076000,0.000
 25836,-0.00013300,0.,0.,0.,0.00003921,0.00000835,0.00048810,-0.0006512
 9,0.00043938,-0.00024107,-0.00061408,-0.00173383,-0.00176851,0.0012455
 3,0.00098370,-0.00069520,-0.00034178,-0.00020000,0.00013374,-0.0031026
 8,0.00150039,-0.00117188,0.00057204,-0.00041762,0.00189231,-0.00009567
 ,0.00002681,-0.00029649,0.00145688,0.00107861,-0.00235479,-0.00194706,
 0.00012854,0.00015147,0.00046946,-0.00004936,-0.00018462,-0.00069758,0
 .00078727,0.00162834,-0.00001662,0.00005070,0.00005169,0.00120903,-0.0
 0070912,-0.00156218,0.00044818,-0.00035252,-0.00087480,0.00038745,-0.0
 0167252,0.00109485,-0.00002792,-0.00002687,-0.00001082,0.00478548,-0.0
 0084111,0.01614519,-0.01004487,-0.00572851,-0.01297262,0.00327804,0.00
 462682,-0.00145162,0.03152218,0.05332739,-0.04613693,-0.00029171,0.002
 07523,0.00115173,-0.00061335,0.00091671,-0.00110465,0.00062498,-0.0005
 7827,0.00296607,-0.00100880,-0.00027857,0.00041836,0.00307026,-0.00174
 306,0.00055762,0.00042221,-0.00117446,0.00082462,0.00101624,0.00039865
 ,0.00185300,0.00016065,0.00038345,0.00015687,-0.00010221,-0.00012267,-
 0.00053056,0.00004326,0.00000488,0.00010219,-0.00015052,0.00000912,-0.
 00024201,0.00000869,0.00001106,0.00005203,-0.00000848,0.00012611,0.000
 02787,-0.00001640,-0.00001851,-0.00008663,0.00000970,-0.00003638,0.000
 01117,-0.00008303,0.00004085,0.00008248,0.,0.00001693,-0.00000960,0.00
 004254,-0.00002209,-0.00002394,-0.00004462,0.00005992,-0.00001415,0.00
 000660,0.00005348,0.00000527,0.00000615,-0.00017642,0.00001123,0.00003
 099,-0.00003182,0.00002297,-0.00010447,-0.00010573,-0.00000802,0.00011
 112,-0.00018068,0.00020429,0.00002372,-0.00017171,0.00015352,0.0000043
 1,0.00007604,-0.00001340,-0.00005798,-0.00011640,-0.00011881,0.0002351
 8,-0.00039505,-0.00053556,-0.00012268,0.00044981,0.00003532,0.00001524
 ,-0.00038526,0.00041720,-0.00012521,0.00007099,-0.00019452,0.00002538,
 -0.00025748,-0.00005126,-0.00005081,-0.00090688,-0.00026228,-0.0001276
 7,-0.00003944,-0.00005345,0.00012168,0.00007109,0.00003049,0.00009684,
 0.00013228,-0.00001397,-0.00236160,-0.00392387,0.00154019,-0.01982910,
 0.11227135,-0.64546553,0.03649514,-0.14287106,0.78592091,0.,0.,0.,0.,0
 .,0.,0.00055025,0.00042674,-0.00036394,-0.00026189,-0.00061038,-0.0001
 9297,0.,0.,0.,0.00000251,0.00046395,-0.00021943,0.00063136,0.00021622,
 -0.00002331,0.,0.,0.,0.00018945,-0.00009301,-0.00013796,-0.00117430,0.
 00081144,-0.00054764,0.00114370,-0.00210010,-0.00383725,0.00046681,0.0
 0152351,0.00072444,-0.00024546,-0.00065522,-0.00044542,-0.00452578,0.0
 0345834,-0.00567392,-0.00039203,0.00019578,0.00305300,0.00010026,0.000
 01136,-0.00102394,0.00247613,0.00021353,0.00064967,-0.00183486,0.00159
 736,-0.00157003,0.00037525,-0.00066561,0.00075363,-0.00106447,0.000340
 93,0.00184156,-0.00007363,-0.00003540,-0.00011759,0.00164551,-0.000754
 25,0.00114607,0.00041081,-0.00065038,-0.00213073,-0.00011578,-0.001286
 57,0.00141328,-0.00012813,-0.00018975,0.00010513,-0.01203265,0.0011067
 0,-0.01239886,0.00766635,-0.00239774,0.00750120,-0.00022022,0.00246793
 ,0.00002452,-0.04235895,-0.05516566,-0.02238206,-0.00022925,-0.0006178
 5,-0.00076441,-0.00051607,0.00009573,-0.00010057,0.00027499,-0.0002478
 6,0.00004504,-0.00001809,-0.00003551,0.00012403,0.00077464,0.00010063,
 0.00013225,-0.00063081,0.00018673,-0.00022385,-0.00217328,-0.00136221,
 -0.00131288,0.00037883,-0.00012746,0.00047177,-0.00002329,0.00009629,-
 0.00031133,0.00003465,-0.00002360,0.00007261,-0.00022130,0.00010460,-0
 .00013655,0.00005808,-0.00008910,0.00003922,-0.00001839,0.00010868,0.0
 0000066,0.00003390,0.00007117,-0.00006383,0.00002268,-0.00006589,0.000
 04539,0.00012563,0.00008504,-0.00030305,-0.00009666,-0.00004346,0.0000
 4669,0.00003324,0.00006780,-0.00001492,-0.00000523,-0.00005907,0.00006
 666,0.00002165,0.00001343,0.00003383,-0.00000478,-0.00008861,-0.000061
 97,0.00005838,-0.00002298,0.00000146,-0.00047088,-0.00040980,-0.000019
 31,0.00026889,0.00039661,0.00005865,-0.00014766,-0.00013606,0.00009789
 ,0.00003603,-0.00005071,0.00003382,-0.00000862,-0.00070545,-0.00004031
 ,-0.00089454,-0.00019166,-0.00038957,-0.00006079,0.00025497,0.00005088
 ,-0.00018296,0.00063610,-0.00034726,-0.00000595,-0.00025297,0.00006432
 ,0.00002997,-0.00033134,-0.00018508,-0.00045924,0.00061234,-0.00027493
 ,0.00013647,0.00000605,-0.00030843,0.00001652,-0.00016115,0.00014850,0
 .00007457,0.00031869,0.00001121,-0.00089700,-0.00279766,-0.00090594,-0
 .20432578,-0.09622745,-0.14562860,0.00898140,-0.00890547,-0.04476362,0
 .24941110,0.,0.,0.,0.,0.,0.,0.00050213,0.00037548,-0.00025809,-0.00025
 081,-0.00061022,-0.00018287,0.,0.,0.,-0.00023034,0.00011541,-0.0000288
 7,0.00027261,0.00014837,-0.00001156,0.,0.,0.,-0.00004556,-0.00008829,0
 .00030350,-0.00007362,0.00000110,0.00002557,-0.00155913,-0.00159661,-0
 .00444827,0.00115833,0.00141668,0.00034455,-0.00036028,-0.00037984,-0.
 00028875,0.00061884,0.00164488,0.00067831,0.00049195,-0.00011133,0.000
 14161,-0.00001926,0.00011098,0.00017956,0.00098669,0.00145564,0.001419
 40,0.00004072,-0.00072096,0.00013233,0.00040674,0.00048516,-0.00036245
 ,-0.00124059,0.00087029,0.00196016,-0.00003824,-0.00006874,-0.00007200
 ,0.00071044,0.00011792,-0.00098412,-0.00004896,-0.00098075,0.00032861,
 0.00010084,-0.00010840,0.00052387,-0.00006785,0.00000196,-0.00007251,0
 .00176537,-0.00993351,0.01737708,0.00236371,0.00134160,0.00930990,-0.0
 0024278,0.00141150,0.00046164,-0.05759138,-0.03514359,-0.02532173,-0.0
 0134984,-0.00133596,-0.00152014,0.00001793,0.00004994,0.00016166,0.000
 02781,-0.00019468,-0.00025292,-0.00011361,-0.00011654,0.00020291,0.000
 35894,-0.00016875,0.00005115,-0.00089734,0.00056381,-0.00017309,-0.001
 96288,-0.00125796,-0.00129245,0.00004886,-0.00022713,0.00039887,-0.000
 00986,0.00011072,-0.00010291,0.00001824,-0.00000683,0.00003361,-0.0000
 7518,0.00005892,-0.00004499,0.00002080,-0.00000583,0.00002234,-0.00001
 271,0.00005265,-0.00000525,0.00000700,0.00003804,-0.00002502,0.0000077
 9,-0.00004921,0.00003806,0.00003378,0.00012751,-0.00033177,-0.00002432
 ,-0.00004495,0.00005317,0.00000073,0.00001320,0.00001781,0.00000793,-0
 .00002627,0.00006109,0.00000215,-0.00000394,0.00003526,0.00001498,-0.0
 0009186,-0.00006693,0.00001353,0.00000166,-0.00002437,0.00006744,-0.00
 009202,-0.00022186,-0.00024859,0.00031529,-0.00005260,-0.00005806,-0.0
 0003392,-0.00002300,-0.00002408,-0.00011861,0.00008936,-0.00007590,-0.
 00015848,0.00000027,-0.00012854,0.00048964,-0.00003231,0.00003288,-0.0
 0006959,0.00005067,-0.00003002,0.00038910,-0.00031459,0.00000355,-0.00
 017845,0.00010473,0.00004121,-0.00026297,-0.00021719,-0.00016669,0.000
 45130,-0.00013179,0.00008431,-0.00000349,-0.00024013,-0.00000701,-0.00
 013827,0.00009236,0.00003848,0.00020919,0.00001285,-0.00021879,-0.0011
 6791,-0.00061749,-0.09994180,-0.15405443,-0.10473467,-0.00423499,0.025
 58534,-0.01589561,0.16093010,0.17201227,0.,0.,0.,0.,0.,0.,0.00060648,0
 .00030375,-0.00030022,-0.00056456,-0.00122807,-0.00028455,0.,0.,0.,-0.
 00117056,0.00143789,-0.00060111,0.00150659,0.00051163,-0.00018590,0.,0
 .,0.,-0.00035366,0.00025341,0.00163415,-0.00121133,0.00080083,-0.00038
 444,-0.00187326,-0.00376180,-0.00507635,0.00284982,0.00216736,-0.00201
 613,-0.00111463,-0.00065983,0.00048098,-0.00794321,0.00416398,-0.00379
 942,0.00180487,-0.00105227,0.00437902,-0.00023750,0.00018155,-0.000515
 20,0.00121371,0.00362882,-0.00728770,-0.00502306,0.00070156,-0.0002947
 3,0.00156370,-0.00050363,0.00020806,-0.00166513,0.00141078,0.00366211,
 -0.00006722,0.00009542,0.00004317,0.00246777,-0.00157913,-0.00529643,-
 0.00046417,-0.00004929,-0.00058986,0.00114344,-0.00437987,0.00262451,-
 0.00010055,-0.00016403,-0.00010677,-0.01330331,0.01147710,-0.08184523,
 0.00438384,0.00453366,0.00401041,0.00265097,0.00576676,-0.00019081,-0.
 01483929,-0.01838464,0.01728455,-0.00110225,-0.00012454,-0.00139001,-0
 .00054191,0.00060438,-0.00025975,0.00060657,0.00003304,0.00106864,-0.0
 0044848,-0.00025055,0.00035206,0.00222615,-0.00104164,0.00058597,-0.00
 083704,-0.00025637,0.00018655,-0.00105111,-0.00090155,-0.00017217,0.00
 027485,-0.00001826,0.00079359,-0.00008202,0.00004334,-0.00056035,0.000
 05529,-0.00000515,0.00013881,-0.00021430,0.00011067,-0.00020860,0.0000
 4262,-0.00002580,0.00006427,-0.00001681,0.00015453,0.00001919,0.000003
 07,0.00004022,-0.00009777,0.00001663,-0.00009229,0.00004558,0.00002688
 ,0.00013515,-0.00042083,-0.00005258,-0.00003306,0.00005529,0.00004464,
 0.00001750,0.00000135,-0.00002845,-0.00000833,0.00010877,0.00001869,0.
 00006366,0.00005181,0.00003008,-0.00034931,-0.00008425,0.00006470,-0.0
 0004421,0.00000256,-0.00018183,-0.00039153,-0.00032384,-0.00000902,0.0
 0037438,0.00020728,-0.00008773,-0.00022965,0.00011532,-0.00000412,-0.0
 0006764,0.00011958,-0.00007219,-0.00055648,-0.00015004,-0.00053053,-0.
 00005581,-0.00066607,-0.00003066,0.00031832,0.00010642,-0.00001153,0.0
 0037158,-0.00038631,-0.00006672,-0.00023043,0.00008830,0.00006603,-0.0
 0070036,-0.00044162,-0.00039565,0.00046649,-0.00035441,0.00003528,-0.0
 0002046,-0.00040938,0.00004144,-0.00016499,0.00013584,0.00012317,0.000
 39305,0.00003295,-0.00166045,-0.00362344,-0.00000103,-0.14186758,-0.09
 676418,-0.26729172,-0.05556530,-0.02952011,-0.09822832,0.23092389,0.12
 418378,0.44356975\\0.,0.,0.,0.,0.,0.,0.,0.,0.,0.,0.,0.,0.,0.,0.,0.,0.,
 0.,0.,0.,0.,0.,0.,0.,0.,0.,0.,0.,0.,0.,0.,0.,0.,0.,0.,0.,0.,0.,0.,0.,0
 .,-0.00000001,0.,0.,0.,0.,0.,0.,0.,0.,0.,0.,0.,0.,0.,0.,0.,0.,0.,0.,0.
 ,0.,0.,0.,0.,0.,0.,0.,0.,0.,0.,0.,0.,0.,0.,0.,-0.00000001,0.,0.,0.,0.,
 0.,0.,0.,0.,0.,0.,0.,0.,0.,0.,0.,0.,0.,0.,0.,0.,0.,0.,0.,0.,0.,0.,0.,0
 .,0.,0.,0.,0.,0.,0.,0.,0.,0.,0.,0.,0.,0.,0.,0.,0.,0.,0.,0.,0.,0.,0.,0.
 ,0.,0.,0.,0.,0.,0.,0.,0.,0.,0.,0.,0.,0.,0.,0.,0.,0.,0.,0.,0.,0.,0.,0.,
 0.,0.,0.,0.,0.,0.,0.,0.,0.,0.,0.,0.,0.,0.,0.,0.,0.,0.,0.,0.,0.,0.,0.,0
 .,0.,0.,0.,0.,0.,0.,0.,0.,0.,0.,0.,0.,0.,0.,0.,0.,0.,0.,0.,0.,0.,0.,0.
 ,0.,0.,0.00000003,0.,0.,-0.00000001,0.,0.,-0.00000001\\\@


 A true friend is someone who is there for
 you when he'd rather be anywhere else.
                               -- Len Wein
 Job cpu time:       3 days  3 hours  3 minutes 21.5 seconds.
 Elapsed time:       0 days  1 hours 12 minutes 39.6 seconds.
 File lengths (MBytes):  RWF=   8712 Int=      0 D2E=      0 Chk=     65 Scr=      2
 Normal termination of Gaussian 16 at Fri Mar 10 16:46:08 2023.
