 Entering Gaussian System, Link 0=g16
 Input=9_test_opt_freq_from_IRC.com
 Output=9_test_opt_freq_from_IRC.log
 Initial command:
 /opt/ohpc/pub/apps/gaussian/avx2/g16/l1.exe "/scratch/g16-tmp/Gau-424758.inp" -scrdir="/scratch/g16-tmp/"
 Entering Link 1 = /opt/ohpc/pub/apps/gaussian/avx2/g16/l1.exe PID=    424759.
  
 Copyright (c) 1988-2017, Gaussian, Inc.  All Rights Reserved.
  
 This is part of the Gaussian(R) 16 program.  It is based on
 the Gaussian(R) 09 system (copyright 2009, Gaussian, Inc.),
 the Gaussian(R) 03 system (copyright 2003, Gaussian, Inc.),
 the Gaussian(R) 98 system (copyright 1998, Gaussian, Inc.),
 the Gaussian(R) 94 system (copyright 1995, Gaussian, Inc.),
 the Gaussian 92(TM) system (copyright 1992, Gaussian, Inc.),
 the Gaussian 90(TM) system (copyright 1990, Gaussian, Inc.),
 the Gaussian 88(TM) system (copyright 1988, Gaussian, Inc.),
 the Gaussian 86(TM) system (copyright 1986, Carnegie Mellon
 University), and the Gaussian 82(TM) system (copyright 1983,
 Carnegie Mellon University). Gaussian is a federally registered
 trademark of Gaussian, Inc.
  
 This software contains proprietary and confidential information,
 including trade secrets, belonging to Gaussian, Inc.
  
 This software is provided under written license and may be
 used, copied, transmitted, or stored only in accord with that
 written license.
  
 The following legend is applicable only to US Government
 contracts under FAR:
  
                    RESTRICTED RIGHTS LEGEND
  
 Use, reproduction and disclosure by the US Government is
 subject to restrictions as set forth in subparagraphs (a)
 and (c) of the Commercial Computer Software - Restricted
 Rights clause in FAR 52.227-19.
  
 Gaussian, Inc.
 340 Quinnipiac St., Bldg. 40, Wallingford CT 06492
  
  
 ---------------------------------------------------------------
 Warning -- This program may not be used in any manner that
 competes with the business of Gaussian, Inc. or will provide
 assistance to any competitor of Gaussian, Inc.  The licensee
 of this program is prohibited from giving any competitor of
 Gaussian, Inc. access to this program.  By using this program,
 the user acknowledges that Gaussian, Inc. is engaged in the
 business of creating and licensing software in the field of
 computational chemistry and represents and warrants to the
 licensee that it is not a competitor of Gaussian, Inc. and that
 it will not use this program in any manner prohibited above.
 ---------------------------------------------------------------
  

 Cite this work as:
 Gaussian 16, Revision B.01,
 M. J. Frisch, G. W. Trucks, H. B. Schlegel, G. E. Scuseria, 
 M. A. Robb, J. R. Cheeseman, G. Scalmani, V. Barone, 
 G. A. Petersson, H. Nakatsuji, X. Li, M. Caricato, A. V. Marenich, 
 J. Bloino, B. G. Janesko, R. Gomperts, B. Mennucci, H. P. Hratchian, 
 J. V. Ortiz, A. F. Izmaylov, J. L. Sonnenberg, D. Williams-Young, 
 F. Ding, F. Lipparini, F. Egidi, J. Goings, B. Peng, A. Petrone, 
 T. Henderson, D. Ranasinghe, V. G. Zakrzewski, J. Gao, N. Rega, 
 G. Zheng, W. Liang, M. Hada, M. Ehara, K. Toyota, R. Fukuda, 
 J. Hasegawa, M. Ishida, T. Nakajima, Y. Honda, O. Kitao, H. Nakai, 
 T. Vreven, K. Throssell, J. A. Montgomery, Jr., J. E. Peralta, 
 F. Ogliaro, M. J. Bearpark, J. J. Heyd, E. N. Brothers, K. N. Kudin, 
 V. N. Staroverov, T. A. Keith, R. Kobayashi, J. Normand, 
 K. Raghavachari, A. P. Rendell, J. C. Burant, S. S. Iyengar, 
 J. Tomasi, M. Cossi, J. M. Millam, M. Klene, C. Adamo, R. Cammi, 
 J. W. Ochterski, R. L. Martin, K. Morokuma, O. Farkas, 
 J. B. Foresman, and D. J. Fox, Gaussian, Inc., Wallingford CT, 2016.
 
 ******************************************
 Gaussian 16:  ES64L-G16RevB.01 20-Dec-2017
                 9-Mar-2023 
 ******************************************
 %nprocshared=64
 Will use up to   64 processors via shared memory.
 %mem=64GB
 %chk=9_test_opt_freq_from_IRC.chk
 ----------------------------------------------------------------------
 # opt=(calcall,tight,cartesian) freq ucam-b3lyp/gen nosymm scf=(qc,max
 cycle=1024,vshift=100) pseudo=read
 ----------------------------------------------------------------------
 1/7=10,10=4,18=10,26=3,38=1/1,3;
 2/12=2,15=1,17=6,18=5,29=2,40=1/2;
 3/5=7,11=2,16=1,17=8,25=1,30=1,71=2,74=-40,116=2,140=1/1,2,3;
 4//1;
 5/5=2,7=1024,8=3,10=100,38=5/8;
 8/6=4,10=90,11=11/1;
 11/6=1,8=1,9=11,15=111,16=1,31=1/1,2,10;
 10/6=1,31=1/2;
 6/7=2,8=2,9=2,10=2,18=1,28=1/1;
 7/7=1,10=1,25=1,30=1/1,2,3,16;
 1/7=10,10=4,18=10,26=3/3(3);
 2/15=1,29=1/2;
 7/7=1,8=1,9=1,25=1,30=1,44=-1/16;
 99/12=1/99;
 2/15=1,29=1/2;
 3/5=7,6=1,11=2,16=1,17=8,25=1,30=1,71=2,74=-40,82=7,116=2,140=1/1,2,3;
 4/5=5,16=3,69=1/1;
 5/5=2,7=1024,8=3,10=100,38=5/8;
 8/6=4,10=90,11=11/1;
 11/6=1,8=1,9=11,15=111,16=1,31=1/1,2,10;
 10/6=1,31=1/2;
 7/7=1,10=1,25=1,30=1/1,2,3,16;
 1/7=10,10=4,18=10,26=3/3(-8);
 2/15=1,29=1/2;
 6/7=2,8=2,9=2,10=2,18=1,19=2,28=1/1;
 7/7=1,8=1,9=1,25=1,30=1,44=-1/16;
 99/12=1/99;
 ------------------------
 9_test_opt_freq_from_IRC
 ------------------------
 Symbolic Z-matrix:
 Charge =  0 Multiplicity = 4
 Li                   -1   -1.21493  -6.59159  -3.55334 
 N                    -1   -0.88453  -5.15963  -2.37072 
 C                    0    -1.71702  -5.44849  -1.32729 
 Cl                   0    -2.59158  -6.94933  -1.36712 
 N                    -1    1.70234   1.06715  -2.57196 
 C                    0     2.69323   0.22557  -2.1826 
 Cl                   0     4.35684   0.53094  -2.52643 
 N                    -1   -3.93523   0.48303   0.97523 
 C                    0    -4.17454   0.47723  -0.35832 
 Cl                   0    -5.58003   1.20002  -1.05504 
 N                    0    -0.84961  -3.476    -0.90056 
 C                    0    -1.70661  -4.42891  -0.42249 
 Cl                   0    -2.55977  -4.26917   1.0479 
 N                    0    -2.24112  -0.56444  -0.08625 
 C                    0    -3.1562   -0.16168  -1.01649 
 Cl                   0    -2.95393  -0.48023  -2.70125 
 N                    0     0.80773  -0.67365  -1.44539 
 C                    0     2.16199  -0.83809  -1.50036 
 Cl                   0     2.94626  -2.20777  -0.8075 
 C                    0    -0.38894  -3.95668  -2.05987 
 H                    0     0.31328  -3.41372  -2.67593 
 C                    0    -2.7783   -0.14692   1.09126 
 H                    0    -2.28743  -0.33592   2.03605 
 C                    0     0.60053   0.48809  -2.11203 
 H                    0    -0.39478   0.88442  -2.26109 
 Co                   0    -0.54449  -1.56063  -0.26669 
 C                    0     2.7816    0.24932   2.7674 
 C                    0     1.9239    0.10306   4.02339 
 O                    0     1.84615  -0.20764   1.73467 
 C                    0     4.02377  -0.60906   2.71756 
 H                    0     1.45217   1.05243   4.28719 
 H                    0     2.45249  -0.32626   4.87374 
 H                    0     4.47842  -0.56782   1.7261 
 H                    0     3.7983   -1.65348   2.95497 
 H                    0     4.74756  -0.23505   3.44656 
 H                    0     2.9762    1.30701   2.57904 
 N                    0     0.59133   4.52678  -0.25835 
 C                    0     0.5855    5.59873   0.82668 
 C                    0     1.42676   6.84222   0.58262 
 H                    0     0.90706   5.09708   1.74612 
 H                    0    -0.46008   5.89644   0.93144 
 H                    0     1.35137   7.44636   1.49011 
 H                    0     2.48241   6.62607   0.43125 
 H                    0     1.06574   7.45365  -0.24704 
 C                    0     0.5601    5.17869  -1.62032 
 C                    0     0.33881   4.25116  -2.80531 
 H                    0     1.50525   5.70722  -1.72992 
 H                    0    -0.23322   5.92923  -1.57105 
 H                    0     0.43874   4.85436  -3.71152 
 H                    0     1.06353   3.43564  -2.86774 
 H                    0    -0.66506   3.82248  -2.81518 
 C                    0    -0.67215   3.68816  -0.09636 
 C                    0    -1.01627   3.26214   1.32234 
 H                    0    -0.52929   2.81329  -0.72935 
 H                    0    -1.48428   4.28422  -0.52064 
 H                    0    -1.809     2.51212   1.25506 
 H                    0    -0.16886   2.83873   1.86553 
 H                    0    -1.39821   4.0895    1.92161 
 C                    0     1.7778    3.57831  -0.12534 
 C                    0     3.162     4.19837  -0.15442 
 H                    0     1.66345   2.84804  -0.92524 
 H                    0     1.65632   3.09237   0.84343 
 H                    0     3.86854   3.37007  -0.25149 
 H                    0     3.33792   4.86364  -1.00343 
 H                    0     3.38734   4.70128   0.78678 
 Br                   0     2.1621    3.61635   3.4192 
 C                    0     0.87982  -0.89543   2.30062 
 O                    0     0.89965  -0.84355   3.61569 
 O                    0     0.03229  -1.53459   1.68321 
 

 GradGradGradGradGradGradGradGradGradGradGradGradGradGradGradGradGradGrad
 Berny optimization.
 Initialization pass.
 No Z-matrix variables, so optimization will use Cartesian coordinates.
 Trust Radius=3.00D-01 FncErr=1.00D-07 GrdErr=1.00D-06 EigMax=2.50D+02 EigMin=1.00D-04
 Number of steps in this run=    217 maximum allowed number of steps=    414.
 GradGradGradGradGradGradGradGradGradGradGradGradGradGradGradGradGradGrad

 Symmetry turned off by external request.
 Stoichiometry    C21H29BrCl6CoLiN7O3(4)
 Framework group  C1[X(C21H29BrCl6CoLiN7O3)]
 Deg. of freedom   201
 Full point group                 C1      NOp   1
                          Input orientation:                          
 ---------------------------------------------------------------------
 Center     Atomic      Atomic             Coordinates (Angstroms)
 Number     Number       Type             X           Y           Z
 ---------------------------------------------------------------------
      1          3           0       -1.214930   -6.591594   -3.553338
      2          7           0       -0.884531   -5.159626   -2.370720
      3          6           0       -1.717022   -5.448492   -1.327290
      4         17           0       -2.591580   -6.949329   -1.367121
      5          7           0        1.702340    1.067147   -2.571959
      6          6           0        2.693229    0.225571   -2.182603
      7         17           0        4.356844    0.530935   -2.526426
      8          7           0       -3.935234    0.483031    0.975232
      9          6           0       -4.174542    0.477232   -0.358322
     10         17           0       -5.580028    1.200017   -1.055042
     11          7           0       -0.849610   -3.475998   -0.900564
     12          6           0       -1.706613   -4.428911   -0.422487
     13         17           0       -2.559773   -4.269172    1.047899
     14          7           0       -2.241124   -0.564440   -0.086248
     15          6           0       -3.156205   -0.161675   -1.016494
     16         17           0       -2.953932   -0.480225   -2.701247
     17          7           0        0.807725   -0.673649   -1.445385
     18          6           0        2.161994   -0.838086   -1.500357
     19         17           0        2.946255   -2.207768   -0.807504
     20          6           0       -0.388939   -3.956679   -2.059870
     21          1           0        0.313275   -3.413716   -2.675929
     22          6           0       -2.778301   -0.146924    1.091256
     23          1           0       -2.287434   -0.335922    2.036046
     24          6           0        0.600526    0.488092   -2.112027
     25          1           0       -0.394778    0.884416   -2.261093
     26         27           0       -0.544491   -1.560629   -0.266685
     27          6           0        2.781597    0.249323    2.767404
     28          6           0        1.923899    0.103056    4.023395
     29          8           0        1.846147   -0.207642    1.734673
     30          6           0        4.023772   -0.609061    2.717556
     31          1           0        1.452166    1.052429    4.287192
     32          1           0        2.452490   -0.326264    4.873742
     33          1           0        4.478421   -0.567815    1.726103
     34          1           0        3.798296   -1.653476    2.954966
     35          1           0        4.747559   -0.235049    3.446556
     36          1           0        2.976204    1.307009    2.579044
     37          7           0        0.591330    4.526777   -0.258346
     38          6           0        0.585497    5.598727    0.826677
     39          6           0        1.426761    6.842222    0.582619
     40          1           0        0.907057    5.097079    1.746120
     41          1           0       -0.460080    5.896437    0.931435
     42          1           0        1.351366    7.446359    1.490114
     43          1           0        2.482414    6.626072    0.431253
     44          1           0        1.065737    7.453646   -0.247039
     45          6           0        0.560098    5.178687   -1.620323
     46          6           0        0.338806    4.251163   -2.805312
     47          1           0        1.505253    5.707220   -1.729921
     48          1           0       -0.233223    5.929230   -1.571048
     49          1           0        0.438735    4.854356   -3.711524
     50          1           0        1.063526    3.435637   -2.867739
     51          1           0       -0.665058    3.822483   -2.815177
     52          6           0       -0.672152    3.688155   -0.096358
     53          6           0       -1.016268    3.262138    1.322344
     54          1           0       -0.529294    2.813291   -0.729352
     55          1           0       -1.484276    4.284223   -0.520643
     56          1           0       -1.809003    2.512121    1.255055
     57          1           0       -0.168863    2.838727    1.865534
     58          1           0       -1.398210    4.089497    1.921607
     59          6           0        1.777799    3.578305   -0.125337
     60          6           0        3.162003    4.198369   -0.154424
     61          1           0        1.663449    2.848037   -0.925238
     62          1           0        1.656319    3.092373    0.843431
     63          1           0        3.868540    3.370070   -0.251494
     64          1           0        3.337923    4.863636   -1.003430
     65          1           0        3.387339    4.701276    0.786784
     66         35           0        2.162105    3.616351    3.419200
     67          6           0        0.879821   -0.895432    2.300623
     68          8           0        0.899650   -0.843551    3.615688
     69          8           0        0.032290   -1.534593    1.683213
 ---------------------------------------------------------------------
 Rotational constants (GHZ):           0.0760656           0.0402244           0.0364135
 General basis read from cards:  (5D, 7F)
 ======================================================================================================
                                       Pseudopotential Parameters
 ======================================================================================================
  Center     Atomic      Valence      Angular      Power
  Number     Number     Electrons     Momentum     of R      Exponent        Coefficient   SO-Coeffient
 ======================================================================================================
    1          3
                                   No pseudopotential on this center.
    2          7
                                   No pseudopotential on this center.
    3          6
                                   No pseudopotential on this center.
    4         17
                                   No pseudopotential on this center.
    5          7
                                   No pseudopotential on this center.
    6          6
                                   No pseudopotential on this center.
    7         17
                                   No pseudopotential on this center.
    8          7
                                   No pseudopotential on this center.
    9          6
                                   No pseudopotential on this center.
   10         17
                                   No pseudopotential on this center.
   11          7
                                   No pseudopotential on this center.
   12          6
                                   No pseudopotential on this center.
   13         17
                                   No pseudopotential on this center.
   14          7
                                   No pseudopotential on this center.
   15          6
                                   No pseudopotential on this center.
   16         17
                                   No pseudopotential on this center.
   17          7
                                   No pseudopotential on this center.
   18          6
                                   No pseudopotential on this center.
   19         17
                                   No pseudopotential on this center.
   20          6
                                   No pseudopotential on this center.
   21          1
                                   No pseudopotential on this center.
   22          6
                                   No pseudopotential on this center.
   23          1
                                   No pseudopotential on this center.
   24          6
                                   No pseudopotential on this center.
   25          1
                                   No pseudopotential on this center.
   26         27           17
                                      D and up 
                                                     1      434.1076104      -10.00000000    0.00000000
                                                     2       78.8402758      -66.72402760    0.00000000
                                                     2       19.6037749      -11.71922430    0.00000000
                                      S - D
                                                     0      151.2307582        3.00000000    0.00000000
                                                     1      169.6790026       20.15531100    0.00000000
                                                     2       64.9909423      413.37622440    0.00000000
                                                     2       12.5076287      133.87277050    0.00000000
                                      P - D
                                                     0       92.7319924        5.00000000    0.00000000
                                                     1      121.1910183        6.18923530    0.00000000
                                                     2       48.6265909      326.32159190    0.00000000
                                                     2       11.9966971       73.87889700    0.00000000
   27          6
                                   No pseudopotential on this center.
   28          6
                                   No pseudopotential on this center.
   29          8
                                   No pseudopotential on this center.
   30          6
                                   No pseudopotential on this center.
   31          1
                                   No pseudopotential on this center.
   32          1
                                   No pseudopotential on this center.
   33          1
                                   No pseudopotential on this center.
   34          1
                                   No pseudopotential on this center.
   35          1
                                   No pseudopotential on this center.
   36          1
                                   No pseudopotential on this center.
   37          7
                                   No pseudopotential on this center.
   38          6
                                   No pseudopotential on this center.
   39          6
                                   No pseudopotential on this center.
   40          1
                                   No pseudopotential on this center.
   41          1
                                   No pseudopotential on this center.
   42          1
                                   No pseudopotential on this center.
   43          1
                                   No pseudopotential on this center.
   44          1
                                   No pseudopotential on this center.
   45          6
                                   No pseudopotential on this center.
   46          6
                                   No pseudopotential on this center.
   47          1
                                   No pseudopotential on this center.
   48          1
                                   No pseudopotential on this center.
   49          1
                                   No pseudopotential on this center.
   50          1
                                   No pseudopotential on this center.
   51          1
                                   No pseudopotential on this center.
   52          6
                                   No pseudopotential on this center.
   53          6
                                   No pseudopotential on this center.
   54          1
                                   No pseudopotential on this center.
   55          1
                                   No pseudopotential on this center.
   56          1
                                   No pseudopotential on this center.
   57          1
                                   No pseudopotential on this center.
   58          1
                                   No pseudopotential on this center.
   59          6
                                   No pseudopotential on this center.
   60          6
                                   No pseudopotential on this center.
   61          1
                                   No pseudopotential on this center.
   62          1
                                   No pseudopotential on this center.
   63          1
                                   No pseudopotential on this center.
   64          1
                                   No pseudopotential on this center.
   65          1
                                   No pseudopotential on this center.
   66         35
                                   No pseudopotential on this center.
   67          6
                                   No pseudopotential on this center.
   68          8
                                   No pseudopotential on this center.
   69          8
                                   No pseudopotential on this center.
 ======================================================================================================
   751 basis functions,  1546 primitive gaussians,   793 cartesian basis functions
   194 alpha electrons      191 beta electrons
       nuclear repulsion energy      7553.3371758780 Hartrees.
 NAtoms=   69 NActive=   69 NUniq=   69 SFac= 1.00D+00 NAtFMM=   60 NAOKFM=T Big=T
 Integral buffers will be    131072 words long.
 Raffenetti 2 integral format.
 Two-electron integral symmetry is turned off.
 One-electron integrals computed using PRISM.
   1 Symmetry operations used in ECPInt.
 ECPInt:  NShTT=   35245 NPrTT=  210561 LenC2=   26169 LenP2D=   79863.
 LDataN:  DoStor=T MaxTD1= 4 Len=   56
 NBasis=   751 RedAO= T EigKep=  1.35D-03  NBF=   751
 NBsUse=   751 1.00D-06 EigRej= -1.00D+00 NBFU=   751
 ExpMin= 2.30D-02 ExpMax= 5.74D+05 ExpMxC= 5.74D+03 IAcc=3 IRadAn=         5 AccDes= 0.00D+00
 Harris functional with IExCor=20419 and IRadAn=       5 diagonalized for initial guess.
 HarFok:  IExCor=20419 AccDes= 0.00D+00 IRadAn=         5 IDoV= 1 UseB2=F ITyADJ=14
 ICtDFT=  3500011 ScaDFX=  1.000000  1.000000  1.000000  1.000000
 FoFCou: FMM=F IPFlag=           0 FMFlag=      100000 FMFlg1=        2001
         NFxFlg=           0 DoJE=T BraDBF=F KetDBF=T FulRan=T
         wScrn=  0.000000 ICntrl=       500 IOpCl=  0 I1Cent=   200000004 NGrid=           0
         NMat0=    1 NMatS0=      1 NMatT0=    0 NMatD0=    1 NMtDS0=    0 NMtDT0=    0
 Symmetry not used in FoFCou.
 Initial guess <Sx>= 0.0000 <Sy>= 0.0000 <Sz>= 1.5000 <S**2>= 3.7500 S= 1.5000
 Gradient too large for Newton-Raphson -- use scaled steepest descent instead.
     Accept linear search using points  3 and  4.
 Gradient too large for Newton-Raphson -- use scaled steepest descent instead.
     Minimum is close to point  2 DX=  4.21D-02 DF= -3.98D-03 DXR=  9.53D-02 DFR=  9.16D-03 which will be used.
 Gradient too large for Newton-Raphson -- use scaled steepest descent instead.
     Minimum is close to point  2 DX=  6.39D-03 DF= -2.91D-05 DXR=  1.26D-02 DFR=  1.59D-04 which will be used.
 Gradient too large for Newton-Raphson -- use scaled steepest descent instead.
     Accept linear search using points  1 and  2.
 Gradient too large for Newton-Raphson -- use scaled steepest descent instead.
 Gradient too large for Newton-Raphson -- use scaled steepest descent instead.
 Gradient too large for Newton-Raphson -- use scaled steepest descent instead.
 Restarting incremental Fock formation.
     Accept linear search using points  2 and  3.
 Gradient too large for Newton-Raphson -- use scaled steepest descent instead.
     Accept linear search using points  1 and  2.
 Gradient too large for Newton-Raphson -- use scaled steepest descent instead.
     Minimum is close to point  7 DX=  4.86D-01 DF= -1.71D-03 DXR=  7.99D-02 DFR=  1.07D-02 which will be used.
 Gradient too large for Newton-Raphson -- use scaled steepest descent instead.
 Gradient too large for Newton-Raphson -- use scaled steepest descent instead.
 Gradient too large for Newton-Raphson -- use scaled steepest descent instead.
 Restarting incremental Fock formation.
     Accept linear search using points  4 and  5.
 Gradient too large for Newton-Raphson -- use scaled steepest descent instead.
     Accept linear search using points  1 and  2.
 Gradient too large for Newton-Raphson -- use scaled steepest descent instead.
     Accept linear search using points  3 and  4.
     Minimum is close to point  4 DX= -1.73D-01 DF= -1.09D-04 DXR=  7.45D-02 DFR=  6.56D-03 which will be used.
 Gradient too large for Newton-Raphson -- use scaled steepest descent instead.
     Accept linear search using points  1 and  2.
 Gradient too large for Newton-Raphson -- use scaled steepest descent instead.
     Accept linear search using points  2 and  3.
 Gradient too large for Newton-Raphson -- use scaled steepest descent instead.
     Accept linear search using points  1 and  2.
 Gradient too large for Newton-Raphson -- use scaled steepest descent instead.
     Accept linear search using points  2 and  3.
 Gradient too large for Newton-Raphson -- use scaled steepest descent instead.
     Accept linear search using points  1 and  2.
 Gradient too large for Newton-Raphson -- use scaled steepest descent instead.
 Restarting incremental Fock formation.
     Accept linear search using points  2 and  3.
 Gradient too large for Newton-Raphson -- use scaled steepest descent instead.
     Accept linear search using points  1 and  2.
 Gradient too large for Newton-Raphson -- use scaled steepest descent instead.
     Accept linear search using points  2 and  3.
 Gradient too large for Newton-Raphson -- use scaled steepest descent instead.
     Accept linear search using points  1 and  2.
 Gradient too large for Newton-Raphson -- use scaled steepest descent instead.
     Accept linear search using points  2 and  3.
 Gradient too large for Newton-Raphson -- use scaled steepest descent instead.
     Accept linear search using points  1 and  2.
 Gradient too large for Newton-Raphson -- use scaled steepest descent instead.
     Accept linear search using points  2 and  3.
 Gradient too large for Newton-Raphson -- use scaled steepest descent instead.
     Accept linear search using points  1 and  2.
 LinEq1:  Iter=  0 NonCon=     1 RMS=4.75D-05 Max=9.98D-03 NDo=     1
 AX will form     1 AO Fock derivatives at one time.
 LinEq1:  Iter=  1 NonCon=     1 RMS=4.08D-05 Max=2.97D-03 NDo=     1
 LinEq1:  Iter=  2 NonCon=     1 RMS=9.10D-06 Max=1.78D-03 NDo=     1
 LinEq1:  Iter=  3 NonCon=     1 RMS=4.79D-06 Max=4.82D-04 NDo=     1
 LinEq1:  Iter=  4 NonCon=     1 RMS=3.73D-06 Max=5.43D-04 NDo=     1
 LinEq1:  Iter=  5 NonCon=     1 RMS=1.71D-06 Max=1.37D-04 NDo=     1
 LinEq1:  Iter=  6 NonCon=     1 RMS=1.13D-06 Max=9.68D-05 NDo=     1
 LinEq1:  Iter=  7 NonCon=     1 RMS=6.34D-07 Max=9.03D-05 NDo=     1
 LinEq1:  Iter=  8 NonCon=     1 RMS=4.31D-07 Max=6.28D-05 NDo=     1
 LinEq1:  Iter=  9 NonCon=     1 RMS=3.41D-07 Max=3.03D-05 NDo=     1
 LinEq1:  Iter= 10 NonCon=     1 RMS=1.65D-07 Max=1.48D-05 NDo=     1
 LinEq1:  Iter= 11 NonCon=     1 RMS=8.41D-08 Max=7.19D-06 NDo=     1
 LinEq1:  Iter= 12 NonCon=     1 RMS=5.46D-08 Max=5.75D-06 NDo=     1
 LinEq1:  Iter= 13 NonCon=     1 RMS=3.50D-08 Max=4.04D-06 NDo=     1
 LinEq1:  Iter= 14 NonCon=     1 RMS=2.13D-08 Max=1.52D-06 NDo=     1
 LinEq1:  Iter= 15 NonCon=     1 RMS=1.07D-08 Max=9.73D-07 NDo=     1
 LinEq1:  Iter= 16 NonCon=     1 RMS=6.00D-09 Max=5.49D-07 NDo=     1
 LinEq1:  Iter= 17 NonCon=     0 RMS=3.95D-09 Max=4.38D-07 NDo=     1
 Linear equations converged to 4.637D-08 4.637D-07 after    17 iterations.
 Restarting incremental Fock formation.
     Accept linear search using points  1 and  2.
 LinEq1:  Iter=  0 NonCon=     1 RMS=1.33D-05 Max=1.53D-03 NDo=     1
 LinEq1:  Iter=  1 NonCon=     1 RMS=1.16D-05 Max=9.99D-04 NDo=     1
 LinEq1:  Iter=  2 NonCon=     1 RMS=6.40D-06 Max=6.77D-04 NDo=     1
 LinEq1:  Iter=  3 NonCon=     1 RMS=3.83D-06 Max=2.84D-04 NDo=     1
 LinEq1:  Iter=  4 NonCon=     1 RMS=2.17D-06 Max=2.68D-04 NDo=     1
 LinEq1:  Iter=  5 NonCon=     1 RMS=1.30D-06 Max=1.62D-04 NDo=     1
 LinEq1:  Iter=  6 NonCon=     1 RMS=9.29D-07 Max=1.02D-04 NDo=     1
 LinEq1:  Iter=  7 NonCon=     1 RMS=5.42D-07 Max=4.03D-05 NDo=     1
 LinEq1:  Iter=  8 NonCon=     1 RMS=3.17D-07 Max=2.10D-05 NDo=     1
 LinEq1:  Iter=  9 NonCon=     1 RMS=2.05D-07 Max=1.52D-05 NDo=     1
 LinEq1:  Iter= 10 NonCon=     1 RMS=1.16D-07 Max=9.77D-06 NDo=     1
 LinEq1:  Iter= 11 NonCon=     1 RMS=7.54D-08 Max=6.59D-06 NDo=     1
 LinEq1:  Iter= 12 NonCon=     1 RMS=5.45D-08 Max=4.73D-06 NDo=     1
 LinEq1:  Iter= 13 NonCon=     1 RMS=3.26D-08 Max=2.99D-06 NDo=     1
 LinEq1:  Iter= 14 NonCon=     1 RMS=2.32D-08 Max=2.08D-06 NDo=     1
 LinEq1:  Iter= 15 NonCon=     1 RMS=1.34D-08 Max=1.13D-06 NDo=     1
 LinEq1:  Iter= 16 NonCon=     1 RMS=7.99D-09 Max=6.61D-07 NDo=     1
 LinEq1:  Iter= 17 NonCon=     0 RMS=5.21D-09 Max=4.63D-07 NDo=     1
 Linear equations converged to 4.637D-08 4.637D-07 after    17 iterations.
     Minimum is close to point  2 DX=  2.14D-03 DF= -2.13D-10 DXR=  2.14D-03 DFR=  4.57D-06 which will be used.
 LinEq1:  Iter=  0 NonCon=     1 RMS=1.38D-07 Max=1.59D-05 NDo=     1
 LinEq1:  Iter=  1 NonCon=     1 RMS=1.22D-07 Max=1.65D-05 NDo=     1
 LinEq1:  Iter=  2 NonCon=     1 RMS=7.36D-08 Max=8.82D-06 NDo=     1
 LinEq1:  Iter=  3 NonCon=     1 RMS=5.01D-08 Max=4.83D-06 NDo=     1
 LinEq1:  Iter=  4 NonCon=     1 RMS=3.01D-08 Max=2.18D-06 NDo=     1
 LinEq1:  Iter=  5 NonCon=     1 RMS=1.89D-08 Max=2.57D-06 NDo=     1
 LinEq1:  Iter=  6 NonCon=     1 RMS=1.28D-08 Max=1.54D-06 NDo=     1
 LinEq1:  Iter=  7 NonCon=     1 RMS=8.04D-09 Max=9.61D-07 NDo=     1
 LinEq1:  Iter=  8 NonCon=     1 RMS=4.89D-09 Max=4.80D-07 NDo=     1
 LinEq1:  Iter=  9 NonCon=     1 RMS=2.88D-09 Max=2.93D-07 NDo=     1
 LinEq1:  Iter= 10 NonCon=     1 RMS=2.08D-09 Max=1.61D-07 NDo=     1
 LinEq1:  Iter= 11 NonCon=     1 RMS=1.35D-09 Max=1.25D-07 NDo=     1
 LinEq1:  Iter= 12 NonCon=     1 RMS=8.21D-10 Max=9.76D-08 NDo=     1
 LinEq1:  Iter= 13 NonCon=     1 RMS=6.22D-10 Max=7.29D-08 NDo=     1
 LinEq1:  Iter= 14 NonCon=     1 RMS=4.30D-10 Max=3.31D-08 NDo=     1
 LinEq1:  Iter= 15 NonCon=     1 RMS=2.92D-10 Max=2.63D-08 NDo=     1
 LinEq1:  Iter= 16 NonCon=     1 RMS=1.55D-10 Max=1.54D-08 NDo=     1
 LinEq1:  Iter= 17 NonCon=     1 RMS=1.11D-10 Max=9.61D-09 NDo=     1
 LinEq1:  Iter= 18 NonCon=     0 RMS=6.38D-11 Max=4.54D-09 NDo=     1
 Linear equations converged to 5.791D-10 5.791D-09 after    18 iterations.
 SCF Done:  E(UCAM-B3LYP) =  -6911.26125476     a.u. after   31 cycles
            Convg  =    0.6083D-06                   137 Fock formations.
              S**2 =  3.7546                  -V/T =  2.0106
 <Sx>= 0.0000 <Sy>= 0.0000 <Sz>= 1.5000 <S**2>= 3.7546 S= 1.5012
 <L.S>=  0.00000000000    
 Annihilation of the first spin contaminant:
 S**2 before annihilation     3.7546,   after     3.7500
 DoSCS=F DFT=T ScalE2(SS,OS)=  1.000000  1.000000
 Range of M.O.s used for correlation:     1   751
 NBasis=   751 NAE=   194 NBE=   191 NFC=     0 NFV=     0
 NROrb=    751 NOA=   194 NOB=   191 NVA=   557 NVB=   560
   1 Symmetry operations used in ECPInt.
 ECPInt:  NShTT=   35245 NPrTT=  210561 LenC2=   26169 LenP2D=   79863.
 LDataN:  DoStor=T MaxTD1= 5 Len=  102
 Number of processors reduced to  11 by ecpmxn.
 Symmetrizing basis deriv contribution to polar:
 IMax=3 JMax=2 DiffMx= 0.00D+00
 G2DrvN: will do    35 centers at a time, making    2 passes.
 Calling FoFCou, ICntrl=  3107 FMM=T I1Cent=   0 AccDes= 0.00D+00.
 Calling FoFCou, ICntrl=  3107 FMM=T I1Cent=   0 AccDes= 0.00D+00.
 End of G2Drv F.D. properties file   721 does not exist.
 End of G2Drv F.D. properties file   722 does not exist.
 End of G2Drv F.D. properties file   788 does not exist.
          IDoAtm=00110110111111111111111111111111111111111111111111
          IDoAtm=1111111111111111111
          Differentiating once with respect to electric field.
                with respect to dipole field.
          Differentiating once with respect to nuclear coordinates.
 CalDSu exits because no D1Ps are significant.
          There are   198 degrees of freedom in the 1st order CPHF.  IDoFFX=6 NUNeed=     3.
    198 vectors produced by pass  0 Test12= 2.15D-13 1.00D-09 XBig12= 3.60D+02 2.75D+00.
 AX will form    96 AO Fock derivatives at one time.
    198 vectors produced by pass  1 Test12= 2.15D-13 1.00D-09 XBig12= 4.56D+01 6.21D-01.
    198 vectors produced by pass  2 Test12= 2.15D-13 1.00D-09 XBig12= 1.42D+00 1.77D-01.
    198 vectors produced by pass  3 Test12= 2.15D-13 1.00D-09 XBig12= 4.11D-02 1.96D-02.
    198 vectors produced by pass  4 Test12= 2.15D-13 1.00D-09 XBig12= 5.28D-04 2.72D-03.
    198 vectors produced by pass  5 Test12= 2.15D-13 1.00D-09 XBig12= 5.64D-06 2.26D-04.
    145 vectors produced by pass  6 Test12= 2.15D-13 1.00D-09 XBig12= 7.16D-08 2.03D-05.
     83 vectors produced by pass  7 Test12= 2.15D-13 1.00D-09 XBig12= 6.82D-10 1.94D-06.
     32 vectors produced by pass  8 Test12= 2.15D-13 1.00D-09 XBig12= 6.42D-12 1.80D-07.
      3 vectors produced by pass  9 Test12= 2.15D-13 1.00D-09 XBig12= 6.63D-14 1.57D-08.
      2 vectors produced by pass 10 Test12= 2.15D-13 1.00D-09 XBig12= 9.06D-16 1.78D-09.
 InvSVY:  IOpt=1 It=  1 EMax= 1.42D-14
 Solved reduced A of dimension  1453 with   198 vectors.
 Isotropic polarizability for W=    0.000000      366.30 Bohr**3.
 End of Minotr F.D. properties file   721 does not exist.
 End of Minotr F.D. properties file   722 does not exist.
 End of Minotr F.D. properties file   788 does not exist.

 **********************************************************************

            Population analysis using the SCF Density.

 **********************************************************************

 Alpha  occ. eigenvalues -- -482.58508-101.66563-101.62481-101.60489-101.59732
 Alpha  occ. eigenvalues -- -101.58854-101.57457 -61.66649 -56.23438 -56.23416
 Alpha  occ. eigenvalues --  -56.23394 -19.29334 -19.29146 -19.25382 -14.52733
 Alpha  occ. eigenvalues --  -14.45081 -14.44689 -14.41543 -14.40464 -14.38051
 Alpha  occ. eigenvalues --  -14.36194 -10.47139 -10.36254 -10.35961 -10.34229
 Alpha  occ. eigenvalues --  -10.32536 -10.32280 -10.32184 -10.31702 -10.31449
 Alpha  occ. eigenvalues --  -10.30892 -10.30517 -10.30374 -10.29549 -10.29202
 Alpha  occ. eigenvalues --  -10.29159 -10.27751 -10.26309 -10.26286 -10.25694
 Alpha  occ. eigenvalues --  -10.24752 -10.24408  -9.59785  -9.55649  -9.53653
 Alpha  occ. eigenvalues --   -9.52887  -9.52100  -9.50717  -8.44690  -7.36174
 Alpha  occ. eigenvalues --   -7.35299  -7.35168  -7.32136  -7.31055  -7.31050
 Alpha  occ. eigenvalues --   -7.30092  -7.29319  -7.29095  -7.29081  -7.28536
 Alpha  occ. eigenvalues --   -7.28331  -7.28324  -7.27538  -7.27518  -7.27150
 Alpha  occ. eigenvalues --   -7.26155  -7.26135  -6.45659  -6.45624  -6.45585
 Alpha  occ. eigenvalues --   -3.95710  -2.65657  -2.65494  -2.64961  -2.57956
 Alpha  occ. eigenvalues --   -2.57952  -2.57920  -2.57892  -2.57887  -2.16233
 Alpha  occ. eigenvalues --   -1.27192  -1.14898  -1.14826  -1.13546  -1.09459
 Alpha  occ. eigenvalues --   -1.08510  -1.07175  -1.01259  -0.98555  -0.95560
 Alpha  occ. eigenvalues --   -0.94408  -0.94058  -0.93760  -0.92838  -0.89082
 Alpha  occ. eigenvalues --   -0.88842  -0.87796  -0.87780  -0.87104  -0.86287
 Alpha  occ. eigenvalues --   -0.82352  -0.81687  -0.80053  -0.77422  -0.76144
 Alpha  occ. eigenvalues --   -0.74336  -0.73625  -0.73068  -0.72047  -0.70012
 Alpha  occ. eigenvalues --   -0.69282  -0.67707  -0.67554  -0.64994  -0.64852
 Alpha  occ. eigenvalues --   -0.63714  -0.62721  -0.62284  -0.61866  -0.61540
 Alpha  occ. eigenvalues --   -0.60943  -0.59473  -0.59251  -0.57485  -0.57152
 Alpha  occ. eigenvalues --   -0.57006  -0.56245  -0.55624  -0.55510  -0.54883
 Alpha  occ. eigenvalues --   -0.53769  -0.53307  -0.52684  -0.52072  -0.51327
 Alpha  occ. eigenvalues --   -0.51182  -0.50649  -0.50196  -0.49935  -0.49784
 Alpha  occ. eigenvalues --   -0.49465  -0.48968  -0.48687  -0.48303  -0.48018
 Alpha  occ. eigenvalues --   -0.47800  -0.46881  -0.46751  -0.46729  -0.46348
 Alpha  occ. eigenvalues --   -0.46308  -0.46017  -0.45659  -0.45440  -0.45332
 Alpha  occ. eigenvalues --   -0.45211  -0.44975  -0.44620  -0.44314  -0.44174
 Alpha  occ. eigenvalues --   -0.43869  -0.43424  -0.43220  -0.43134  -0.42303
 Alpha  occ. eigenvalues --   -0.41979  -0.41858  -0.40770  -0.40711  -0.40527
 Alpha  occ. eigenvalues --   -0.40136  -0.39641  -0.39602  -0.39488  -0.39218
 Alpha  occ. eigenvalues --   -0.38890  -0.38507  -0.38149  -0.37803  -0.37333
 Alpha  occ. eigenvalues --   -0.37014  -0.35703  -0.35586  -0.34320  -0.32803
 Alpha  occ. eigenvalues --   -0.31142  -0.30823  -0.30149  -0.29673  -0.25568
 Alpha  occ. eigenvalues --   -0.24360  -0.23507  -0.23246  -0.23148
 Alpha virt. eigenvalues --   -0.05980  -0.00273   0.00536   0.04381   0.04809
 Alpha virt. eigenvalues --    0.04892   0.05873   0.06410   0.06788   0.07426
 Alpha virt. eigenvalues --    0.07722   0.09183   0.09782   0.09934   0.10819
 Alpha virt. eigenvalues --    0.11011   0.11357   0.11620   0.12166   0.12826
 Alpha virt. eigenvalues --    0.13079   0.13296   0.13471   0.13508   0.14182
 Alpha virt. eigenvalues --    0.14369   0.14433   0.14634   0.14886   0.16256
 Alpha virt. eigenvalues --    0.16453   0.17387   0.17695   0.18505   0.18857
 Alpha virt. eigenvalues --    0.19060   0.19144   0.19634   0.19875   0.20266
 Alpha virt. eigenvalues --    0.20349   0.20914   0.21157   0.21549   0.21696
 Alpha virt. eigenvalues --    0.22202   0.22487   0.23050   0.23332   0.23699
 Alpha virt. eigenvalues --    0.23888   0.24134   0.24453   0.24751   0.25319
 Alpha virt. eigenvalues --    0.25600   0.26302   0.26463   0.26820   0.27207
 Alpha virt. eigenvalues --    0.27643   0.28212   0.28485   0.28927   0.29795
 Alpha virt. eigenvalues --    0.30117   0.31102   0.31520   0.31755   0.31979
 Alpha virt. eigenvalues --    0.32286   0.32475   0.32904   0.33559   0.34243
 Alpha virt. eigenvalues --    0.35146   0.35794   0.37045   0.38757   0.39118
 Alpha virt. eigenvalues --    0.40048   0.40826   0.41145   0.41549   0.42111
 Alpha virt. eigenvalues --    0.42363   0.42718   0.43627   0.44313   0.45299
 Alpha virt. eigenvalues --    0.45790   0.46200   0.46958   0.47062   0.48007
 Alpha virt. eigenvalues --    0.48164   0.48561   0.49033   0.49448   0.49656
 Alpha virt. eigenvalues --    0.50540   0.51184   0.51555   0.51978   0.52228
 Alpha virt. eigenvalues --    0.52576   0.53181   0.53306   0.53720   0.53857
 Alpha virt. eigenvalues --    0.54519   0.54805   0.55067   0.55342   0.55930
 Alpha virt. eigenvalues --    0.56537   0.56934   0.57485   0.58058   0.59111
 Alpha virt. eigenvalues --    0.59259   0.59875   0.59944   0.60430   0.61005
 Alpha virt. eigenvalues --    0.61757   0.62131   0.62514   0.62998   0.63281
 Alpha virt. eigenvalues --    0.63364   0.64149   0.64160   0.64444   0.64795
 Alpha virt. eigenvalues --    0.64919   0.65045   0.65460   0.65683   0.66189
 Alpha virt. eigenvalues --    0.66427   0.66723   0.67144   0.67415   0.67647
 Alpha virt. eigenvalues --    0.67818   0.68184   0.68249   0.69047   0.69766
 Alpha virt. eigenvalues --    0.70082   0.70241   0.70504   0.71105   0.71574
 Alpha virt. eigenvalues --    0.71947   0.72410   0.72871   0.73182   0.73232
 Alpha virt. eigenvalues --    0.73786   0.73973   0.74118   0.74810   0.75439
 Alpha virt. eigenvalues --    0.75861   0.76653   0.77081   0.77513   0.78258
 Alpha virt. eigenvalues --    0.78807   0.79085   0.79805   0.80349   0.81306
 Alpha virt. eigenvalues --    0.81933   0.82494   0.82965   0.83349   0.84647
 Alpha virt. eigenvalues --    0.85455   0.85845   0.85943   0.86526   0.87029
 Alpha virt. eigenvalues --    0.87392   0.87669   0.88031   0.88678   0.89079
 Alpha virt. eigenvalues --    0.89804   0.89838   0.90167   0.90316   0.90724
 Alpha virt. eigenvalues --    0.90863   0.91078   0.91307   0.91512   0.91863
 Alpha virt. eigenvalues --    0.92387   0.92580   0.92775   0.92968   0.93233
 Alpha virt. eigenvalues --    0.93405   0.93588   0.93807   0.94082   0.94432
 Alpha virt. eigenvalues --    0.94587   0.94817   0.95165   0.95406   0.95559
 Alpha virt. eigenvalues --    0.96021   0.96443   0.96518   0.96857   0.97207
 Alpha virt. eigenvalues --    0.97336   0.97790   0.98162   0.98418   0.98716
 Alpha virt. eigenvalues --    0.99654   1.00074   1.00613   1.00799   1.01060
 Alpha virt. eigenvalues --    1.01390   1.01533   1.02051   1.02533   1.02980
 Alpha virt. eigenvalues --    1.03261   1.03696   1.04378   1.04524   1.05126
 Alpha virt. eigenvalues --    1.05153   1.05539   1.05700   1.06090   1.06510
 Alpha virt. eigenvalues --    1.06914   1.07132   1.07346   1.07907   1.08667
 Alpha virt. eigenvalues --    1.09377   1.09743   1.10928   1.11606   1.11888
 Alpha virt. eigenvalues --    1.12234   1.12997   1.13203   1.13692   1.14176
 Alpha virt. eigenvalues --    1.14329   1.15437   1.15572   1.16147   1.16687
 Alpha virt. eigenvalues --    1.17456   1.17644   1.18103   1.18863   1.19229
 Alpha virt. eigenvalues --    1.19917   1.21568   1.22015   1.23125   1.23850
 Alpha virt. eigenvalues --    1.24446   1.26983   1.27748   1.27851   1.28987
 Alpha virt. eigenvalues --    1.29481   1.29822   1.30597   1.31422   1.32189
 Alpha virt. eigenvalues --    1.33343   1.35056   1.35742   1.37824   1.38988
 Alpha virt. eigenvalues --    1.39265   1.39616   1.39882   1.41423   1.41875
 Alpha virt. eigenvalues --    1.43085   1.43366   1.43977   1.45749   1.46206
 Alpha virt. eigenvalues --    1.46363   1.46914   1.47990   1.48256   1.48749
 Alpha virt. eigenvalues --    1.48970   1.49343   1.49499   1.50697   1.51342
 Alpha virt. eigenvalues --    1.51610   1.52292   1.54667   1.54910   1.55189
 Alpha virt. eigenvalues --    1.56841   1.58761   1.59697   1.60173   1.61668
 Alpha virt. eigenvalues --    1.62183   1.63208   1.63734   1.65075   1.66022
 Alpha virt. eigenvalues --    1.66184   1.66635   1.67341   1.68267   1.69089
 Alpha virt. eigenvalues --    1.69986   1.70298   1.70641   1.71160   1.71584
 Alpha virt. eigenvalues --    1.72568   1.73690   1.73830   1.73968   1.75086
 Alpha virt. eigenvalues --    1.75476   1.76564   1.77467   1.78218   1.79633
 Alpha virt. eigenvalues --    1.80883   1.81721   1.83704   1.85581   1.86480
 Alpha virt. eigenvalues --    1.88298   1.88467   1.89251   1.90111   1.91095
 Alpha virt. eigenvalues --    1.92018   1.92935   1.93344   1.94487   1.94779
 Alpha virt. eigenvalues --    1.95517   1.96432   1.97486   1.97554   1.98354
 Alpha virt. eigenvalues --    1.99048   1.99554   2.00686   2.00839   2.01615
 Alpha virt. eigenvalues --    2.02086   2.02651   2.03059   2.04336   2.05078
 Alpha virt. eigenvalues --    2.06440   2.06515   2.07026   2.07828   2.08310
 Alpha virt. eigenvalues --    2.09645   2.10670   2.10922   2.11384   2.11790
 Alpha virt. eigenvalues --    2.12201   2.12524   2.13067   2.13289   2.13821
 Alpha virt. eigenvalues --    2.13950   2.14981   2.15414   2.16203   2.16425
 Alpha virt. eigenvalues --    2.17099   2.17480   2.18356   2.18769   2.18923
 Alpha virt. eigenvalues --    2.19094   2.19609   2.19765   2.20262   2.20844
 Alpha virt. eigenvalues --    2.21336   2.21970   2.22907   2.23600   2.24518
 Alpha virt. eigenvalues --    2.25311   2.26088   2.27781   2.28314   2.28756
 Alpha virt. eigenvalues --    2.29618   2.30035   2.30461   2.31516   2.32299
 Alpha virt. eigenvalues --    2.32919   2.33358   2.33792   2.34161   2.34473
 Alpha virt. eigenvalues --    2.35392   2.35848   2.36640   2.36929   2.37939
 Alpha virt. eigenvalues --    2.38411   2.39275   2.39591   2.40682   2.40950
 Alpha virt. eigenvalues --    2.41839   2.41972   2.42334   2.46619   2.48182
 Alpha virt. eigenvalues --    2.48516   2.49171   2.49712   2.50055   2.51272
 Alpha virt. eigenvalues --    2.51905   2.52730   2.55130   2.56159   2.56590
 Alpha virt. eigenvalues --    2.58325   2.61091   2.62846   2.63207   2.63272
 Alpha virt. eigenvalues --    2.64517   2.65141   2.65627   2.65900   2.67150
 Alpha virt. eigenvalues --    2.67538   2.68051   2.68218   2.68646   2.68946
 Alpha virt. eigenvalues --    2.69211   2.69643   2.70390   2.71229   2.71845
 Alpha virt. eigenvalues --    2.72525   2.72960   2.73294   2.73810   2.75619
 Alpha virt. eigenvalues --    2.76026   2.76436   2.77865   2.78517   2.79124
 Alpha virt. eigenvalues --    2.80127   2.80254   2.80808   2.80915   2.82321
 Alpha virt. eigenvalues --    2.83641   2.84010   2.84917   2.85287   2.87022
 Alpha virt. eigenvalues --    2.87145   2.87451   2.88109   2.88260   2.89141
 Alpha virt. eigenvalues --    2.89508   2.89721   2.89922   2.91830   2.92175
 Alpha virt. eigenvalues --    2.92625   2.92869   2.93707   2.94960   2.95392
 Alpha virt. eigenvalues --    2.96269   2.96374   2.97435   2.97665   2.97984
 Alpha virt. eigenvalues --    2.99196   2.99753   3.00981   3.01283   3.02460
 Alpha virt. eigenvalues --    3.02921   3.03320   3.04724   3.05078   3.05607
 Alpha virt. eigenvalues --    3.11097   3.18263   3.22904   3.24206   3.24962
 Alpha virt. eigenvalues --    3.26895   3.27815   3.28737   3.29259   3.31113
 Alpha virt. eigenvalues --    3.32958   3.36925   3.37783   3.39499   3.39923
 Alpha virt. eigenvalues --    3.44041   3.46946   3.48034   3.49236   3.51139
 Alpha virt. eigenvalues --    3.51930   3.52045   3.53554   3.53887   3.55565
 Alpha virt. eigenvalues --    3.57061   3.58163   3.58814   3.59842   3.60801
 Alpha virt. eigenvalues --    3.61898   3.62261   3.63207   3.64346   3.69252
 Alpha virt. eigenvalues --    5.97083   8.70354
  Beta  occ. eigenvalues -- -482.58508-101.66562-101.62480-101.60487-101.59730
  Beta  occ. eigenvalues -- -101.58852-101.57455 -61.66649 -56.23438 -56.23416
  Beta  occ. eigenvalues --  -56.23394 -19.29324 -19.29144 -19.25238 -14.52733
  Beta  occ. eigenvalues --  -14.44954 -14.44684 -14.41403 -14.40301 -14.38044
  Beta  occ. eigenvalues --  -14.36183 -10.47130 -10.36246 -10.35959 -10.34218
  Beta  occ. eigenvalues --  -10.32537 -10.32280 -10.32182 -10.31703 -10.31449
  Beta  occ. eigenvalues --  -10.30876 -10.30524 -10.30374 -10.29526 -10.29187
  Beta  occ. eigenvalues --  -10.29159 -10.27729 -10.26309 -10.26286 -10.25694
  Beta  occ. eigenvalues --  -10.24752 -10.24408  -9.59784  -9.55648  -9.53651
  Beta  occ. eigenvalues --   -9.52886  -9.52099  -9.50715  -8.44690  -7.36172
  Beta  occ. eigenvalues --   -7.35298  -7.35167  -7.32134  -7.31053  -7.31050
  Beta  occ. eigenvalues --   -7.30089  -7.29316  -7.29092  -7.29079  -7.28535
  Beta  occ. eigenvalues --   -7.28327  -7.28323  -7.27535  -7.27517  -7.27149
  Beta  occ. eigenvalues --   -7.26151  -7.26133  -6.45659  -6.45624  -6.45585
  Beta  occ. eigenvalues --   -3.80252  -2.57956  -2.57952  -2.57920  -2.57892
  Beta  occ. eigenvalues --   -2.57887  -2.48932  -2.48836  -2.48742  -2.16232
  Beta  occ. eigenvalues --   -1.27147  -1.14825  -1.14641  -1.13456  -1.09459
  Beta  occ. eigenvalues --   -1.08385  -1.07020  -1.01191  -0.98533  -0.95495
  Beta  occ. eigenvalues --   -0.94350  -0.94003  -0.93671  -0.92753  -0.88984
  Beta  occ. eigenvalues --   -0.88823  -0.87783  -0.87675  -0.87104  -0.86287
  Beta  occ. eigenvalues --   -0.82309  -0.81687  -0.80020  -0.77362  -0.76073
  Beta  occ. eigenvalues --   -0.74336  -0.73624  -0.73051  -0.72047  -0.69886
  Beta  occ. eigenvalues --   -0.69171  -0.67702  -0.67462  -0.64868  -0.64808
  Beta  occ. eigenvalues --   -0.63515  -0.62332  -0.62118  -0.61661  -0.61353
  Beta  occ. eigenvalues --   -0.60709  -0.59466  -0.59248  -0.57264  -0.56990
  Beta  occ. eigenvalues --   -0.56860  -0.55708  -0.55406  -0.54976  -0.54860
  Beta  occ. eigenvalues --   -0.53693  -0.53294  -0.52519  -0.51714  -0.51108
  Beta  occ. eigenvalues --   -0.50560  -0.49835  -0.49636  -0.49501  -0.48904
  Beta  occ. eigenvalues --   -0.48319  -0.48255  -0.48007  -0.47778  -0.46893
  Beta  occ. eigenvalues --   -0.46756  -0.46341  -0.46312  -0.46255  -0.45695
  Beta  occ. eigenvalues --   -0.45449  -0.45371  -0.45220  -0.44983  -0.44654
  Beta  occ. eigenvalues --   -0.44435  -0.44151  -0.43403  -0.43262  -0.42945
  Beta  occ. eigenvalues --   -0.42504  -0.42305  -0.42032  -0.41899  -0.41723
  Beta  occ. eigenvalues --   -0.40772  -0.40705  -0.40459  -0.40120  -0.39679
  Beta  occ. eigenvalues --   -0.39545  -0.39495  -0.38965  -0.38429  -0.37814
  Beta  occ. eigenvalues --   -0.37711  -0.37396  -0.36375  -0.36234  -0.35242
  Beta  occ. eigenvalues --   -0.34858  -0.33085  -0.31210  -0.31069  -0.30152
  Beta  occ. eigenvalues --   -0.29636  -0.25553  -0.24350  -0.23507  -0.23246
  Beta  occ. eigenvalues --   -0.23148
  Beta virt. eigenvalues --   -0.05983  -0.01445  -0.01016  -0.00856  -0.00134
  Beta virt. eigenvalues --    0.00645   0.04400   0.04893   0.05001   0.06213
  Beta virt. eigenvalues --    0.06666   0.07054   0.07639   0.07838   0.09618
  Beta virt. eigenvalues --    0.09884   0.10202   0.10854   0.11262   0.11667
  Beta virt. eigenvalues --    0.12008   0.12280   0.12963   0.13104   0.13339
  Beta virt. eigenvalues --    0.13579   0.13618   0.14233   0.14449   0.14510
  Beta virt. eigenvalues --    0.14763   0.14973   0.16332   0.16508   0.17467
  Beta virt. eigenvalues --    0.17724   0.18554   0.18903   0.19123   0.19388
  Beta virt. eigenvalues --    0.19706   0.20139   0.20355   0.20534   0.20958
  Beta virt. eigenvalues --    0.21439   0.21848   0.21978   0.22499   0.23031
  Beta virt. eigenvalues --    0.23222   0.23489   0.23809   0.24064   0.24186
  Beta virt. eigenvalues --    0.24755   0.24990   0.25376   0.25619   0.26325
  Beta virt. eigenvalues --    0.26555   0.26860   0.27232   0.27784   0.28295
  Beta virt. eigenvalues --    0.28553   0.28937   0.29824   0.30180   0.31137
  Beta virt. eigenvalues --    0.31589   0.31964   0.32115   0.32401   0.32540
  Beta virt. eigenvalues --    0.32958   0.33667   0.34274   0.35148   0.35941
  Beta virt. eigenvalues --    0.37110   0.38880   0.39225   0.40190   0.40908
  Beta virt. eigenvalues --    0.41183   0.41645   0.42190   0.42537   0.42857
  Beta virt. eigenvalues --    0.43686   0.44565   0.45375   0.45980   0.46294
  Beta virt. eigenvalues --    0.46987   0.47107   0.48079   0.48297   0.48634
  Beta virt. eigenvalues --    0.49063   0.49515   0.49741   0.50621   0.51279
  Beta virt. eigenvalues --    0.51636   0.52008   0.52237   0.52597   0.53222
  Beta virt. eigenvalues --    0.53341   0.53773   0.53926   0.54636   0.54923
  Beta virt. eigenvalues --    0.55088   0.55430   0.55938   0.56611   0.56974
  Beta virt. eigenvalues --    0.57520   0.58112   0.59232   0.59319   0.59964
  Beta virt. eigenvalues --    0.59994   0.60491   0.61089   0.61789   0.62164
  Beta virt. eigenvalues --    0.62591   0.63064   0.63345   0.63484   0.64168
  Beta virt. eigenvalues --    0.64190   0.64546   0.64834   0.64949   0.65127
  Beta virt. eigenvalues --    0.65488   0.65726   0.66209   0.66476   0.66789
  Beta virt. eigenvalues --    0.67175   0.67456   0.67680   0.67847   0.68220
  Beta virt. eigenvalues --    0.68311   0.69212   0.69831   0.70123   0.70314
  Beta virt. eigenvalues --    0.70615   0.71145   0.71608   0.71993   0.72486
  Beta virt. eigenvalues --    0.72993   0.73268   0.73377   0.73862   0.74016
  Beta virt. eigenvalues --    0.74175   0.74841   0.75479   0.76064   0.76800
  Beta virt. eigenvalues --    0.77224   0.77590   0.78369   0.78928   0.79297
  Beta virt. eigenvalues --    0.79852   0.80470   0.81459   0.82235   0.82631
  Beta virt. eigenvalues --    0.83080   0.83451   0.84886   0.85699   0.86076
  Beta virt. eigenvalues --    0.86125   0.86634   0.87289   0.87477   0.87790
  Beta virt. eigenvalues --    0.88143   0.88818   0.89143   0.89864   0.89925
  Beta virt. eigenvalues --    0.90302   0.90475   0.90742   0.90965   0.91191
  Beta virt. eigenvalues --    0.91363   0.91643   0.91921   0.92513   0.92635
  Beta virt. eigenvalues --    0.92896   0.93055   0.93358   0.93457   0.93666
  Beta virt. eigenvalues --    0.93869   0.94110   0.94472   0.94796   0.94929
  Beta virt. eigenvalues --    0.95342   0.95448   0.95667   0.96088   0.96524
  Beta virt. eigenvalues --    0.96827   0.96915   0.97296   0.97418   0.98030
  Beta virt. eigenvalues --    0.98476   0.98597   0.99018   0.99681   1.00297
  Beta virt. eigenvalues --    1.00748   1.01061   1.01228   1.01653   1.01886
  Beta virt. eigenvalues --    1.02371   1.02625   1.03157   1.03572   1.03851
  Beta virt. eigenvalues --    1.04561   1.04980   1.05174   1.05293   1.05634
  Beta virt. eigenvalues --    1.05849   1.06233   1.06664   1.06973   1.07553
  Beta virt. eigenvalues --    1.08022   1.08086   1.08700   1.09651   1.10056
  Beta virt. eigenvalues --    1.11095   1.11662   1.12151   1.12497   1.13099
  Beta virt. eigenvalues --    1.13432   1.14044   1.14400   1.14590   1.15613
  Beta virt. eigenvalues --    1.15993   1.16289   1.16820   1.17584   1.17969
  Beta virt. eigenvalues --    1.18187   1.19047   1.19605   1.20153   1.21857
  Beta virt. eigenvalues --    1.22142   1.23339   1.23916   1.24787   1.27167
  Beta virt. eigenvalues --    1.27772   1.27960   1.29013   1.29585   1.29900
  Beta virt. eigenvalues --    1.30633   1.31466   1.32237   1.33468   1.35145
  Beta virt. eigenvalues --    1.35809   1.37872   1.39021   1.39299   1.39785
  Beta virt. eigenvalues --    1.39952   1.41529   1.41944   1.43126   1.43443
  Beta virt. eigenvalues --    1.44081   1.45827   1.46286   1.46483   1.46960
  Beta virt. eigenvalues --    1.48088   1.48340   1.48833   1.49031   1.49414
  Beta virt. eigenvalues --    1.49524   1.50783   1.51417   1.51792   1.52341
  Beta virt. eigenvalues --    1.54674   1.55039   1.55286   1.56985   1.58785
  Beta virt. eigenvalues --    1.59773   1.60232   1.61710   1.62205   1.63232
  Beta virt. eigenvalues --    1.63789   1.65167   1.66044   1.66306   1.66745
  Beta virt. eigenvalues --    1.67399   1.68317   1.69109   1.70076   1.70397
  Beta virt. eigenvalues --    1.70704   1.71204   1.71648   1.72609   1.73745
  Beta virt. eigenvalues --    1.73865   1.74042   1.75229   1.75650   1.76693
  Beta virt. eigenvalues --    1.77528   1.78257   1.79883   1.80922   1.81829
  Beta virt. eigenvalues --    1.83770   1.85588   1.86524   1.88347   1.88487
  Beta virt. eigenvalues --    1.89255   1.90242   1.91097   1.92087   1.92999
  Beta virt. eigenvalues --    1.93434   1.94525   1.94819   1.95523   1.96507
  Beta virt. eigenvalues --    1.97502   1.97638   1.98439   1.99062   1.99634
  Beta virt. eigenvalues --    2.00702   2.00909   2.01693   2.02110   2.02697
  Beta virt. eigenvalues --    2.03176   2.04396   2.05079   2.06449   2.06569
  Beta virt. eigenvalues --    2.07113   2.07863   2.08334   2.09711   2.10692
  Beta virt. eigenvalues --    2.10963   2.11451   2.11827   2.12206   2.12542
  Beta virt. eigenvalues --    2.13079   2.13296   2.13823   2.14014   2.14983
  Beta virt. eigenvalues --    2.15489   2.16207   2.16440   2.17128   2.17501
  Beta virt. eigenvalues --    2.18374   2.18807   2.18942   2.19101   2.19650
  Beta virt. eigenvalues --    2.19783   2.20322   2.20860   2.21339   2.21986
  Beta virt. eigenvalues --    2.22910   2.23610   2.24521   2.25392   2.26144
  Beta virt. eigenvalues --    2.27812   2.28348   2.28792   2.29654   2.30103
  Beta virt. eigenvalues --    2.30464   2.31519   2.32348   2.32928   2.33400
  Beta virt. eigenvalues --    2.33833   2.34183   2.34519   2.35487   2.35946
  Beta virt. eigenvalues --    2.36651   2.36935   2.37961   2.38481   2.39315
  Beta virt. eigenvalues --    2.39661   2.40723   2.40990   2.41867   2.42046
  Beta virt. eigenvalues --    2.42343   2.46621   2.48198   2.48581   2.49267
  Beta virt. eigenvalues --    2.49721   2.50066   2.51285   2.51907   2.52733
  Beta virt. eigenvalues --    2.55132   2.56160   2.56613   2.58326   2.61093
  Beta virt. eigenvalues --    2.62887   2.63241   2.63336   2.64539   2.65221
  Beta virt. eigenvalues --    2.65654   2.65939   2.67199   2.67572   2.68124
  Beta virt. eigenvalues --    2.68314   2.68665   2.68984   2.69261   2.69744
  Beta virt. eigenvalues --    2.70411   2.71266   2.71911   2.72568   2.72981
  Beta virt. eigenvalues --    2.73378   2.73815   2.75674   2.76130   2.76460
  Beta virt. eigenvalues --    2.77941   2.78520   2.79165   2.80133   2.80265
  Beta virt. eigenvalues --    2.80816   2.80941   2.82325   2.83648   2.84080
  Beta virt. eigenvalues --    2.84919   2.85321   2.87041   2.87167   2.87455
  Beta virt. eigenvalues --    2.88187   2.88302   2.89156   2.89546   2.89749
  Beta virt. eigenvalues --    2.90005   2.91860   2.92224   2.92629   2.92891
  Beta virt. eigenvalues --    2.93712   2.94982   2.95395   2.96295   2.96432
  Beta virt. eigenvalues --    2.97440   2.97716   2.98051   2.99207   2.99764
  Beta virt. eigenvalues --    3.00983   3.01287   3.02462   3.02934   3.03330
  Beta virt. eigenvalues --    3.04745   3.05086   3.05649   3.11183   3.18313
  Beta virt. eigenvalues --    3.22958   3.24255   3.25019   3.26924   3.27817
  Beta virt. eigenvalues --    3.28743   3.29264   3.31114   3.32959   3.36926
  Beta virt. eigenvalues --    3.37787   3.39499   3.39923   3.44042   3.46946
  Beta virt. eigenvalues --    3.48034   3.49236   3.51140   3.51931   3.52045
  Beta virt. eigenvalues --    3.53554   3.53888   3.55565   3.57098   3.58163
  Beta virt. eigenvalues --    3.58815   3.59844   3.60808   3.61919   3.62276
  Beta virt. eigenvalues --    3.63233   3.64348   3.69255   5.96205   8.70354
          Condensed to atoms (all electrons):
          Atomic-Atomic Spin Densities.
 Mulliken charges and spin densities:
               1          2
     1  Li   0.600166   0.000507
     2  N   -0.502952   0.001298
     3  C    0.065831   0.004346
     4  Cl   0.068292   0.001152
     5  N   -0.401749   0.002086
     6  C    0.014896   0.008773
     7  Cl  -0.020028   0.001343
     8  N   -0.374837   0.003592
     9  C    0.010510   0.013252
    10  Cl  -0.026158   0.001501
    11  N   -0.508655   0.047298
    12  C    0.058065  -0.001106
    13  Cl   0.069924   0.000731
    14  N   -0.544186   0.070898
    15  C    0.030097  -0.007716
    16  Cl  -0.018130   0.001052
    17  N   -0.537294   0.059355
    18  C    0.043032  -0.004192
    19  Cl  -0.012368   0.001103
    20  C    0.244247   0.002669
    21  H    0.156551   0.000635
    22  C    0.181010   0.008693
    23  H    0.117035  -0.000008
    24  C    0.187648   0.004669
    25  H    0.113672   0.000331
    26  Co   0.800634   2.737273
    27  C    0.100271  -0.000155
    28  C    0.003871   0.001030
    29  O   -0.417801   0.000742
    30  C   -0.322726   0.000006
    31  H    0.188937   0.000042
    32  H    0.135172   0.000020
    33  H    0.146855  -0.000001
    34  H    0.109012  -0.000000
    35  H    0.128503   0.000002
    36  H    0.177983   0.000037
    37  N   -0.377047   0.000001
    38  C   -0.076445   0.000001
    39  C   -0.338087  -0.000000
    40  H    0.202442   0.000001
    41  H    0.123104   0.000000
    42  H    0.141409   0.000000
    43  H    0.133793   0.000000
    44  H    0.105517   0.000000
    45  C   -0.059450  -0.000000
    46  C   -0.362614   0.000032
    47  H    0.141990  -0.000000
    48  H    0.129698   0.000001
    49  H    0.122075   0.000001
    50  H    0.181365   0.000035
    51  H    0.125355  -0.000002
    52  C   -0.074736   0.000013
    53  C   -0.353421   0.000001
    54  H    0.152019   0.000013
    55  H    0.131373  -0.000000
    56  H    0.154502  -0.000038
    57  H    0.160954   0.000005
    58  H    0.123154  -0.000003
    59  C   -0.080343   0.000006
    60  C   -0.345882   0.000000
    61  H    0.154845  -0.000022
    62  H    0.170610   0.000003
    63  H    0.139543  -0.000003
    64  H    0.097618   0.000000
    65  H    0.159963  -0.000000
    66  Br  -0.752838   0.000023
    67  C    0.838296   0.002137
    68  O   -0.422848   0.001806
    69  O   -0.511246   0.034734
 Sum of Mulliken charges =  -0.00000   3.00000
 Mulliken charges and spin densities with hydrogens summed into heavy atoms:
               1          2
     1  Li   0.600166   0.000507
     2  N   -0.502952   0.001298
     3  C    0.065831   0.004346
     4  Cl   0.068292   0.001152
     5  N   -0.401749   0.002086
     6  C    0.014896   0.008773
     7  Cl  -0.020028   0.001343
     8  N   -0.374837   0.003592
     9  C    0.010510   0.013252
    10  Cl  -0.026158   0.001501
    11  N   -0.508655   0.047298
    12  C    0.058065  -0.001106
    13  Cl   0.069924   0.000731
    14  N   -0.544186   0.070898
    15  C    0.030097  -0.007716
    16  Cl  -0.018130   0.001052
    17  N   -0.537294   0.059355
    18  C    0.043032  -0.004192
    19  Cl  -0.012368   0.001103
    20  C    0.400797   0.003304
    22  C    0.298045   0.008685
    24  C    0.301321   0.004999
    26  Co   0.800634   2.737273
    27  C    0.278255  -0.000119
    28  C    0.327980   0.001092
    29  O   -0.417801   0.000742
    30  C    0.061643   0.000007
    37  N   -0.377047   0.000001
    38  C    0.249100   0.000001
    39  C    0.042632  -0.000000
    45  C    0.212238   0.000001
    46  C    0.066183   0.000065
    52  C    0.208656   0.000026
    53  C    0.085188  -0.000034
    59  C    0.245112  -0.000012
    60  C    0.051241  -0.000002
    66  Br  -0.752838   0.000023
    67  C    0.838296   0.002137
    68  O   -0.422848   0.001806
    69  O   -0.511246   0.034734
 Electronic spatial extent (au):  <R**2>=          30501.4611
 Charge=             -0.0000 electrons
 Dipole moment (field-independent basis, Debye):
    X=              1.1184    Y=            -11.4530    Z=            -11.1232  Tot=             16.0046
 Quadrupole moment (field-independent basis, Debye-Ang):
   XX=           -339.5711   YY=           -170.3061   ZZ=           -284.2435
   XY=              4.8765   XZ=             12.9174   YZ=             27.5049
 Traceless Quadrupole moment (field-independent basis, Debye-Ang):
   XX=            -74.8642   YY=             94.4008   ZZ=            -19.5366
   XY=              4.8765   XZ=             12.9174   YZ=             27.5049
 Octapole moment (field-independent basis, Debye-Ang**2):
  XXX=            162.4056  YYY=           -540.7887  ZZZ=            -87.5083  XYY=           -159.1560
  XXY=            -90.9808  XXZ=             48.3937  XZZ=            -75.2053  YZZ=           -394.8917
  YYZ=           -557.9007  XYZ=           -148.7072
 Hexadecapole moment (field-independent basis, Debye-Ang**3):
 XXXX=         -12569.7220 YYYY=         -13161.1495 ZZZZ=          -6702.1366 XXXY=          -2222.5001
 XXXZ=           -778.1583 YYYX=          -1480.1334 YYYZ=           1297.5228 ZZZX=           -744.0612
 ZZZY=           -657.7251 XXYY=          -5219.9650 XXZZ=          -3251.3322 YYZZ=          -3054.4988
 XXYZ=           -548.2984 YYXZ=            -76.6874 ZZXY=           -753.7971
 N-N= 7.553337175878D+03 E-N=-3.150835843470D+04  KE= 6.838764992568D+03
  Exact polarizability: 371.914   8.057 384.794   1.787   9.639 342.186
 Approx polarizability: 436.920  -2.483 418.217 -14.253  -0.421 431.895
                          Isotropic Fermi Contact Couplings
        Atom                 a.u.       MegaHertz       Gauss      10(-4) cm-1
     1  Li(7)              0.00013       0.07484       0.02670       0.02496
     2  N(14)              0.00128       0.13755       0.04908       0.04588
     3  C(13)              0.00424       1.59027       0.56745       0.53046
     4  Cl(35)             0.00083       0.12085       0.04312       0.04031
     5  N(14)              0.00014       0.01541       0.00550       0.00514
     6  C(13)              0.00415       1.55647       0.55539       0.51918
     7  Cl(35)             0.00054       0.07848       0.02800       0.02618
     8  N(14)              0.00001       0.00140       0.00050       0.00047
     9  C(13)              0.00513       1.92349       0.68635       0.64161
    10  Cl(35)             0.00045       0.06555       0.02339       0.02187
    11  N(14)              0.06607       7.11552       2.53899       2.37348
    12  C(13)              0.00136       0.50840       0.18141       0.16959
    13  Cl(35)             0.00106       0.15442       0.05510       0.05151
    14  N(14)              0.06752       7.27156       2.59467       2.42553
    15  C(13)             -0.00037      -0.13972      -0.04986      -0.04661
    16  Cl(35)             0.00196       0.28665       0.10228       0.09562
    17  N(14)              0.06400       6.89335       2.45972       2.29937
    18  C(13)              0.00150       0.56272       0.20079       0.18770
    19  Cl(35)             0.00224       0.32804       0.11705       0.10942
    20  C(13)              0.00247       0.92405       0.32973       0.30823
    21  H(1)               0.00019       0.28691       0.10238       0.09570
    22  C(13)              0.00333       1.24832       0.44543       0.41639
    23  H(1)               0.00003       0.04648       0.01658       0.01550
    24  C(13)              0.00301       1.12704       0.40216       0.37594
    25  H(1)               0.00014       0.20726       0.07396       0.06914
    26  Co(59)             0.00000       0.00080       0.00029       0.00027
    27  C(13)             -0.00009      -0.03279      -0.01170      -0.01094
    28  C(13)              0.00028       0.10436       0.03724       0.03481
    29  O(17)             -0.00011       0.02278       0.00813       0.00760
    30  C(13)              0.00001       0.00218       0.00078       0.00073
    31  H(1)               0.00003       0.04492       0.01603       0.01498
    32  H(1)               0.00001       0.01636       0.00584       0.00546
    33  H(1)              -0.00000      -0.00072      -0.00026      -0.00024
    34  H(1)              -0.00000      -0.00122      -0.00044      -0.00041
    35  H(1)              -0.00000      -0.00158      -0.00056      -0.00053
    36  H(1)               0.00002       0.02979       0.01063       0.00994
    37  N(14)              0.00000       0.00037       0.00013       0.00012
    38  C(13)             -0.00000      -0.00001      -0.00000      -0.00000
    39  C(13)              0.00000       0.00006       0.00002       0.00002
    40  H(1)               0.00000       0.00001       0.00000       0.00000
    41  H(1)               0.00000       0.00006       0.00002       0.00002
    42  H(1)               0.00000       0.00004       0.00001       0.00001
    43  H(1)              -0.00000      -0.00000      -0.00000      -0.00000
    44  H(1)               0.00000       0.00001       0.00000       0.00000
    45  C(13)              0.00000       0.00023       0.00008       0.00008
    46  C(13)              0.00004       0.01495       0.00533       0.00499
    47  H(1)              -0.00000      -0.00008      -0.00003      -0.00003
    48  H(1)               0.00000       0.00097       0.00035       0.00032
    49  H(1)               0.00000       0.00023       0.00008       0.00008
    50  H(1)              -0.00000      -0.00176      -0.00063      -0.00059
    51  H(1)              -0.00000      -0.00085      -0.00030      -0.00028
    52  C(13)              0.00000       0.00181       0.00064       0.00060
    53  C(13)             -0.00001      -0.00307      -0.00110      -0.00102
    54  H(1)              -0.00000      -0.00008      -0.00003      -0.00003
    55  H(1)              -0.00000      -0.00005      -0.00002      -0.00002
    56  H(1)              -0.00000      -0.00092      -0.00033      -0.00031
    57  H(1)              -0.00000      -0.00078      -0.00028      -0.00026
    58  H(1)              -0.00000      -0.00104      -0.00037      -0.00035
    59  C(13)             -0.00000      -0.00030      -0.00011      -0.00010
    60  C(13)              0.00000       0.00006       0.00002       0.00002
    61  H(1)               0.00000       0.00053       0.00019       0.00018
    62  H(1)               0.00000       0.00092       0.00033       0.00031
    63  H(1)               0.00000       0.00008       0.00003       0.00003
    64  H(1)               0.00000       0.00005       0.00002       0.00002
    65  H(1)              -0.00000      -0.00022      -0.00008      -0.00007
    66  Br(79)             0.00003       0.01010       0.00360       0.00337
    67  C(13)              0.00435       1.63093       0.58195       0.54402
    68  O(17)              0.00613      -1.23786      -0.44170      -0.41291
    69  O(17)              0.07308     -14.76649      -5.26905      -4.92557
 --------------------------------------------------------
       Center         ----  Spin Dipole Couplings  ----
                      3XX-RR        3YY-RR        3ZZ-RR
 --------------------------------------------------------
     1   Atom       -0.002044      0.002215     -0.000172
     2   Atom       -0.007921      0.008187     -0.000266
     3   Atom       -0.003544      0.007984     -0.004439
     4   Atom       -0.002772      0.005927     -0.003155
     5   Atom       -0.001652      0.006922     -0.005270
     6   Atom        0.000485     -0.002421      0.001936
     7   Atom       -0.001348      0.001426     -0.000078
     8   Atom        0.010574     -0.001877     -0.008697
     9   Atom        0.005885      0.006743     -0.012628
    10   Atom        0.004690      0.005030     -0.009720
    11   Atom       -0.069868      0.119296     -0.049427
    12   Atom       -0.006231      0.021849     -0.015619
    13   Atom       -0.002471      0.005113     -0.002642
    14   Atom        0.110024     -0.005684     -0.104340
    15   Atom        0.018903     -0.014626     -0.004277
    16   Atom        0.003939     -0.011722      0.007783
    17   Atom        0.019212     -0.016119     -0.003093
    18   Atom        0.031082     -0.015180     -0.015902
    19   Atom        0.023854     -0.011226     -0.012628
    20   Atom       -0.015656      0.010034      0.005622
    21   Atom       -0.010444      0.000211      0.010233
    22   Atom        0.005687      0.001266     -0.006953
    23   Atom       -0.001764     -0.008295      0.010058
    24   Atom       -0.015035      0.009531      0.005504
    25   Atom       -0.012505      0.010530      0.001974
    26   Atom        0.132480      0.211688     -0.344168
    27   Atom        0.001625     -0.002195      0.000569
    28   Atom       -0.000676     -0.001850      0.002526
    29   Atom        0.007321     -0.006599     -0.000722
    30   Atom        0.002722     -0.002376     -0.000346
    31   Atom       -0.001532     -0.000752      0.002283
    32   Atom       -0.000509     -0.001753      0.002262
    33   Atom        0.003957     -0.002403     -0.001554
    34   Atom        0.002655     -0.002790      0.000135
    35   Atom        0.001444     -0.001360     -0.000085
    36   Atom        0.000836     -0.000403     -0.000432
    37   Atom       -0.001651      0.003504     -0.001853
    38   Atom       -0.001032      0.002076     -0.001044
    39   Atom       -0.000570      0.001229     -0.000659
    40   Atom       -0.001065      0.001993     -0.000928
    41   Atom       -0.001017      0.001967     -0.000950
    42   Atom       -0.000470      0.000951     -0.000481
    43   Atom       -0.000422      0.001068     -0.000646
    44   Atom       -0.000521      0.001100     -0.000578
    45   Atom       -0.001206      0.002380     -0.001174
    46   Atom       -0.001588      0.002534     -0.000947
    47   Atom       -0.000767      0.001644     -0.000878
    48   Atom       -0.000992      0.001915     -0.000923
    49   Atom       -0.001057      0.001452     -0.000395
    50   Atom       -0.001729      0.002723     -0.000994
    51   Atom       -0.002044      0.003017     -0.000973
    52   Atom       -0.002970      0.005995     -0.003026
    53   Atom       -0.003169      0.005530     -0.002361
    54   Atom       -0.005003      0.009980     -0.004977
    55   Atom       -0.001938      0.004062     -0.002125
    56   Atom       -0.003632      0.006834     -0.003202
    57   Atom       -0.003574      0.005184     -0.001609
    58   Atom       -0.001802      0.002997     -0.001195
    59   Atom       -0.001216      0.003633     -0.002417
    60   Atom       -0.000182      0.001547     -0.001365
    61   Atom       -0.001526      0.004917     -0.003391
    62   Atom       -0.001429      0.003972     -0.002543
    63   Atom        0.000489      0.001023     -0.001512
    64   Atom       -0.000222      0.001232     -0.001010
    65   Atom       -0.000184      0.001171     -0.000986
    66   Atom       -0.000852      0.001109     -0.000257
    67   Atom       -0.004664     -0.009345      0.014009
    68   Atom       -0.007497     -0.005785      0.013281
    69   Atom       -0.084065     -0.095304      0.179369
 --------------------------------------------------------
                        XY            XZ            YZ
 --------------------------------------------------------
     1   Atom        0.000569      0.000351      0.002882
     2   Atom        0.003925      0.002742      0.012165
     3   Atom        0.002622      0.002993      0.002871
     4   Atom        0.003505      0.003884      0.005224
     5   Atom        0.012643     -0.007813     -0.010445
     6   Atom        0.006709     -0.005656      0.002093
     7   Atom        0.008113     -0.002848      0.001056
     8   Atom       -0.014854     -0.010794      0.006823
     9   Atom        0.000839     -0.000861     -0.002233
    10   Atom        0.001340     -0.003809      0.000756
    11   Atom        0.032152      0.022662      0.077227
    12   Atom        0.019783     -0.003572      0.000154
    13   Atom        0.014053     -0.009116     -0.006422
    14   Atom       -0.099303     -0.037478      0.014206
    15   Atom       -0.023590      0.015328     -0.005613
    16   Atom       -0.011898      0.017958     -0.005923
    17   Atom        0.092112     -0.089814     -0.055188
    18   Atom        0.007364     -0.014002     -0.008162
    19   Atom       -0.008303     -0.009425     -0.002183
    20   Atom       -0.004261      0.000302      0.021628
    21   Atom       -0.005997     -0.008999      0.017388
    22   Atom       -0.011310     -0.020197      0.013357
    23   Atom       -0.008760     -0.015514      0.011429
    24   Atom        0.011901     -0.009367     -0.018602
    25   Atom        0.000324     -0.000937     -0.019633
    26   Atom       -0.000546     -0.225565     -0.042346
    27   Atom        0.003028      0.004803      0.002628
    28   Atom        0.002490      0.004014      0.002851
    29   Atom        0.010662      0.011985      0.006676
    30   Atom        0.001084      0.003395      0.000690
    31   Atom        0.001208      0.002156      0.002879
    32   Atom        0.000614      0.002587      0.000978
    33   Atom        0.001289      0.002597      0.000498
    34   Atom       -0.000143      0.003929     -0.000092
    35   Atom        0.000737      0.002055      0.000509
    36   Atom        0.003025      0.002931      0.002379
    37   Atom        0.000999     -0.000014      0.000034
    38   Atom        0.000511      0.000075      0.000497
    39   Atom        0.000449      0.000044      0.000198
    40   Atom        0.000710      0.000212      0.000981
    41   Atom        0.000047      0.000004      0.000486
    42   Atom        0.000316      0.000061      0.000294
    43   Atom        0.000639      0.000054      0.000154
    44   Atom        0.000301     -0.000001      0.000008
    45   Atom        0.000594     -0.000129     -0.000721
    46   Atom        0.000567     -0.000281     -0.001810
    47   Atom        0.000729     -0.000150     -0.000512
    48   Atom        0.000122     -0.000029     -0.000502
    49   Atom        0.000374     -0.000210     -0.001378
    50   Atom        0.001452     -0.000795     -0.002506
    51   Atom       -0.000144      0.000037     -0.002414
    52   Atom       -0.000170     -0.000042      0.000313
    53   Atom       -0.000757     -0.000263      0.002921
    54   Atom        0.000071     -0.000113     -0.001546
    55   Atom       -0.000940      0.000019     -0.000273
    56   Atom       -0.003283     -0.001231      0.004346
    57   Atom        0.000815      0.000395      0.004304
    58   Atom       -0.000687     -0.000267      0.001915
    59   Atom        0.002725      0.000068      0.000237
    60   Atom        0.001871      0.000045      0.000094
    61   Atom        0.004152     -0.000633     -0.001071
    62   Atom        0.003293      0.000778      0.001708
    63   Atom        0.002280      0.000033      0.000060
    64   Atom        0.001358     -0.000149     -0.000233
    65   Atom        0.001399      0.000239      0.000392
    66   Atom        0.001194      0.000795      0.001435
    67   Atom        0.011774      0.020322      0.010738
    68   Atom       -0.000328      0.006525      0.007616
    69   Atom       -0.006284      0.026312     -0.016365
 --------------------------------------------------------


 ---------------------------------------------------------------------------------
              Anisotropic Spin Dipole Couplings in Principal Axis System
 ---------------------------------------------------------------------------------

       Atom             a.u.   MegaHertz   Gauss  10(-4) cm-1        Axes

              Baa    -0.0021    -0.442    -0.158    -0.147  0.8158 -0.3899  0.4272
     1 Li(7)  Bbb    -0.0021    -0.431    -0.154    -0.144 -0.5685 -0.4051  0.7160
              Bcc     0.0042     0.873     0.312     0.291  0.1061  0.8270  0.5521
 
              Baa    -0.0089    -0.344    -0.123    -0.115  0.3181 -0.5966  0.7368
     2 N(14)  Bbb    -0.0088    -0.339    -0.121    -0.113  0.9301  0.0460 -0.3643
              Bcc     0.0177     0.684     0.244     0.228  0.1835  0.8012  0.5695
 
              Baa    -0.0070    -0.944    -0.337    -0.315 -0.6343 -0.0369  0.7722
     3 C(13)  Bbb    -0.0024    -0.321    -0.115    -0.107  0.7327 -0.3470  0.5854
[...]
 028329,-0.00005688,-0.00007627,-0.00018793,-0.00027780,0.00042363,-0.0
 0033475,0.00087527,0.00033088,0.00071754,0.00056067,0.00003073,0.00061
 236,-0.00027437,0.00011898,-0.00003064,0.00000174,-0.00056391,-0.00002
 072,-0.00537148,0.00114877,-0.00007652,0.75517257,0.,0.,0.,0.,0.,0.,-0
 .00041253,-0.00048479,0.00020614,0.00019649,0.00059235,0.00019796,0.,0
 .,0.,0.00049149,-0.00164156,0.00075599,-0.00078491,-0.00020228,0.00003
 524,0.,0.,0.,0.00006926,-0.00004265,-0.00027764,0.00074595,-0.00042220
 ,0.00027740,0.00051836,0.00133768,0.00202525,-0.00052647,-0.00120944,-
 0.00031248,-0.00006089,0.00019144,0.00043321,0.00366942,-0.00213055,0.
 00245011,-0.00044159,-0.00015612,-0.00195788,0.00004622,-0.00000828,0.
 00041705,-0.00218464,-0.00356306,0.00237960,0.00115429,0.00127182,-0.0
 0067610,-0.00071655,-0.00036436,0.00032204,0.00073152,-0.00051892,-0.0
 0198557,0.00005398,0.00012916,0.00005631,-0.00206727,0.00103765,0.0005
 7512,-0.00025098,0.00108623,0.00056515,0.00007233,0.00198949,-0.000626
 96,0.00016816,0.00014572,0.00022088,-0.00535214,0.00426622,-0.02208845
 ,-0.04722720,-0.03075283,-0.02403168,-0.00006971,0.01029028,-0.0226949
 6,-0.09539435,-0.21693794,0.09353794,0.00552273,0.00213066,0.00728430,
 -0.00652941,-0.00535914,-0.00016668,-0.00229456,-0.00286209,0.00118391
 ,-0.00117518,-0.00047860,0.00061571,-0.00005008,-0.00044428,-0.0003854
 6,0.00354706,-0.00009525,-0.00107547,0.00155772,-0.00006478,0.00178419
 ,-0.00066635,0.00000296,-0.00022457,0.00000725,0.00017056,0.00007664,-
 0.00005896,-0.00002704,-0.00009655,0.00060425,-0.00057728,0.00027419,-
 0.00013105,0.00007687,-0.00001414,0.00001417,-0.00008862,0.00000398,-0
 .00000225,-0.00010935,0.00008170,-0.00006227,0.00011164,-0.00003424,0.
 00014502,-0.00011560,0.00034937,-0.00000004,0.00008045,-0.00008894,-0.
 00001355,-0.00009945,0.00000724,-0.00006324,0.00003908,-0.00004988,-0.
 00004123,-0.00000918,-0.00003186,0.00011206,0.00007509,0.00002523,-0.0
 0005800,0.00006455,0.00008006,0.00038817,0.00029835,-0.00009251,-0.000
 23148,-0.00018601,-0.00005176,0.00005297,0.00047900,0.00010574,-0.0001
 0829,-0.00001580,-0.00001425,-0.00026319,0.00005576,0.00008982,0.00069
 599,0.00028717,0.00013379,0.00008144,-0.00007461,-0.00007226,0.0007475
 5,-0.00016508,-0.00010171,-0.00006511,-0.00010964,-0.00032197,-0.00015
 049,0.00027787,-0.00017516,0.00104278,-0.00017032,0.00035643,0.0003653
 8,-0.00011281,0.00090235,-0.00032176,0.00032164,-0.00007282,0.00001772
 ,-0.00056437,-0.00000482,-0.00284333,0.00261432,0.00344783,0.34944284,
 0.58564833,0.,0.,0.,0.,0.,0.,-0.00029514,-0.00035266,0.00007471,0.0002
 8091,0.00065390,0.00010291,0.,0.,0.,0.00172333,-0.00029713,-0.00036844
 ,-0.00134672,-0.00026955,0.00035682,0.,0.,0.,-0.00014859,-0.00012441,-
 0.00050415,0.00075963,-0.00041458,0.00027871,0.00078408,0.00172009,0.0
 0079962,-0.00091000,-0.00080168,0.00081176,0.00033337,0.00028236,-0.00
 016235,0.00368042,-0.00115862,0.00018417,-0.00088156,0.00021510,-0.001
 76639,0.00018426,0.00000940,0.00026998,-0.00117026,-0.00149059,0.00493
 714,0.00326608,0.00011283,-0.00162221,-0.00051583,0.00001330,0.0006259
 8,0.00024988,-0.00088875,-0.00146166,-0.00004871,-0.00011402,-0.000137
 35,-0.00167255,0.00120832,0.00153942,-0.00033583,0.00035363,0.00089284
 ,-0.00044077,0.00313692,-0.00102209,0.00007205,-0.00003699,0.00003326,
 -0.01711831,-0.00697951,-0.01765345,0.01736801,-0.00682837,0.02968614,
 -0.04966643,-0.03423996,-0.02128496,0.04560128,0.11649012,-0.17955241,
 -0.00530023,0.00032801,-0.00734754,0.00508800,0.00347026,-0.00065788,0
 .00754260,0.00513362,-0.00149217,0.00169203,0.00033876,-0.00089331,0.0
 0053026,-0.00002418,0.00132360,-0.00277028,-0.00019710,0.00132801,-0.0
 0711678,-0.00143222,-0.00742717,0.00005854,-0.00014307,-0.00052813,0.0
 0002609,0.00037890,0.00037999,-0.00022224,-0.00006929,-0.00008078,0.00
 068212,-0.00070130,0.00033134,-0.00006891,-0.00000430,-0.00009045,0.00
 000615,-0.00011889,-0.00002592,0.00009423,0.00005286,0.00002707,0.0000
 2422,0.00010180,-0.00005600,0.00006247,-0.00015303,0.00009523,-0.00005
 229,0.00010632,-0.00001695,-0.00003109,0.00007388,0.00000430,0.0000434
 4,-0.00003457,-0.00004609,-0.00002063,-0.00003614,-0.00002533,0.000049
 91,0.00002042,-0.00004873,-0.00002067,0.00006138,0.00004710,-0.0000280
 3,-0.00017049,0.00029183,-0.00012355,-0.00005333,-0.00009555,-0.000005
 90,0.00039045,0.00006601,0.00000493,0.00002481,-0.00012238,-0.00008937
 ,0.00003358,0.00005963,0.00048885,0.00005001,0.00026978,0.00005876,-0.
 00009295,-0.00009241,-0.00064730,0.00038811,0.00011685,-0.00005237,0.0
 0025378,0.00014867,-0.00017780,0.00025050,-0.00024736,0.00064453,0.000
 12367,0.00095164,0.00003110,0.00019443,-0.00027478,0.00006151,-0.00010
 223,-0.00008034,-0.00012060,-0.00019320,0.00025659,-0.00231381,0.00481
 619,-0.00289265,0.25936682,-0.04364168,0.67634966,0.,0.,0.,0.,0.,0.,0.
 00020496,0.00022603,-0.00010596,-0.00013716,-0.00036076,-0.00009159,0.
 ,0.,0.,-0.00075214,0.00040375,0.00001026,0.00071745,0.00013915,-0.0001
 0676,0.,0.,0.,0.00011883,0.00000427,0.00022005,-0.00044468,0.00023509,
 -0.00017720,-0.00037466,-0.00101657,-0.00121812,0.00040302,0.00061813,
 -0.00010780,-0.00004493,-0.00010089,-0.00007897,-0.00186657,0.00088712
 ,-0.00070696,0.00029478,0.00003759,0.00104179,-0.00003131,-0.00003550,
 -0.00027119,0.00113445,0.00119758,-0.00194231,-0.00152769,0.00030032,0
 .00010176,0.00045091,-0.00016958,-0.00004503,-0.00038750,0.00035287,0.
 00099150,-0.00003362,0.00001054,-0.00000914,0.00103766,-0.00061916,-0.
 00049945,0.00024274,-0.00028547,-0.00020993,0.00021000,-0.00148791,0.0
 0059311,-0.00002817,-0.00003826,-0.00001439,0.00397923,-0.00088997,0.0
 1003326,-0.02062823,-0.02207963,-0.00050910,-0.12532740,-0.06753381,-0
 .00864424,0.02006284,-0.00327580,-0.00559502,0.00201870,-0.00185608,0.
 00434593,-0.00101863,-0.00421398,-0.00273049,-0.02651489,-0.02974633,-
 0.00776508,-0.00112980,0.00026246,0.00087153,-0.00016231,0.00029680,-0
 .00062958,0.00108441,0.00034478,-0.00047107,-0.00044498,0.00008165,0.0
 0318183,0.00011080,0.00015355,0.00010742,-0.00007738,-0.00015636,-0.00
 013510,0.00004729,0.00001733,0.00004503,-0.00012028,0.00018327,-0.0000
 5133,0.00002908,-0.00000118,0.00001955,-0.00000409,0.00003842,0.000016
 10,-0.00002712,-0.00000496,-0.00003172,0.00000581,-0.00002523,0.000003
 25,-0.00002672,0.00000939,-0.00002645,0.00000911,-0.00002384,0.0000056
 0,0.00001437,0.00000236,-0.00001122,-0.00000910,0.00000850,0.00001796,
 0.00000503,0.00002125,0.00000386,-0.00003874,-0.00002882,0.00002489,0.
 00002991,-0.00003799,-0.00002536,-0.00007000,-0.00004052,-0.00000615,0
 .00010462,0.00006130,0.00002183,0.00000523,-0.00021485,-0.00003891,0.0
 0001119,0.00002935,0.00001750,0.00009003,-0.00003443,-0.00004302,-0.00
 020590,-0.00014240,-0.00008429,-0.00003606,0.00006171,0.00003587,0.000
 05304,-0.00013123,0.00005750,0.00003302,-0.00003428,-0.00002832,0.0000
 7958,-0.00012233,0.00010238,-0.00022581,-0.00012066,-0.00026006,-0.000
 10721,-0.00006042,-0.00004746,0.00003343,0.00000853,0.00001320,-0.0000
 0589,0.00013440,0.00000045,0.00213386,0.00048599,0.00082181,-0.1174734
 1,0.01064001,-0.09402210,0.30464261,0.,0.,0.,0.,0.,0.,0.00005470,0.000
 08488,-0.00001630,-0.00001292,-0.00005441,-0.00003392,0.,0.,0.,-0.0000
 9337,0.00024940,-0.00012002,0.00014752,0.00004183,0.00001310,0.,0.,0.,
 -0.00001582,0.00000718,0.00001923,-0.00010670,0.00006703,-0.00003872,-
 0.00001433,-0.00007775,-0.00031175,-0.00000744,0.00014091,0.00019566,0
 .00004502,-0.00001811,-0.00012517,-0.00054858,0.00032588,-0.00041451,0
 .00005488,0.00002750,0.00030230,0.00000157,0.00000525,-0.00006238,0.00
 039529,0.00054800,-0.00020922,0.00002621,-0.00037206,0.00015346,0.0000
 1393,0.00016040,-0.00005024,-0.00010203,0.00000218,0.00020054,-0.00001
 010,-0.00003706,-0.00001843,0.00034129,-0.00017209,-0.00014568,0.00002
 762,-0.00014012,-0.00005314,-0.00008783,-0.00021678,0.00005824,-0.0000
 2122,-0.00002494,-0.00002891,-0.00023314,-0.00047406,0.00307298,-0.016
 03559,-0.02681034,0.00927805,-0.04970639,-0.12728683,0.00629898,-0.012
 39381,-0.01507030,0.04791365,0.00086363,-0.00267135,0.00153842,-0.0235
 4490,-0.01528677,-0.00559354,0.00324234,0.01228827,0.00171131,-0.00089
 123,0.00066942,0.00018601,-0.00037050,0.00046257,0.00012001,-0.0002127
 8,0.00019302,-0.00036697,-0.00074364,-0.00066241,0.00375983,0.00013244
 ,0.00002209,0.00002365,-0.00002051,-0.00003656,-0.00002591,0.00000987,
 0.00000576,0.00002212,-0.00012400,0.00013019,-0.00004376,0.00002984,-0
 .00001376,0.00000310,-0.00000672,0.00002157,0.00000185,-0.00000256,0.0
 0002356,-0.00002279,0.00001744,-0.00002301,0.00000763,-0.00003358,0.00
 002667,-0.00006437,-0.00000010,-0.00001487,0.00001740,0.00000188,0.000
 02140,-0.00000301,0.00001140,-0.00000764,0.00000675,0.00000739,0.,0.00
 000703,-0.00002077,-0.00001494,-0.00000757,0.00001043,-0.00000996,-0.0
 0001519,-0.00007657,-0.00006222,0.00002152,0.00006350,0.00004420,0.000
 01466,-0.00000973,-0.00008437,-0.00001854,0.00002178,-0.00000075,0.000
 00352,0.00006227,-0.00001254,-0.00001291,-0.00016741,-0.00007001,-0.00
 003567,-0.00001975,0.00001243,0.00001354,-0.00010567,0.00000722,0.0000
 8726,0.00002211,0.00000830,0.00002023,0.00004597,-0.00005738,0.0000388
 1,-0.00021067,0.00000049,-0.00011894,-0.00010298,0.00000258,-0.0001483
 2,0.00006347,-0.00004597,0.00002268,-0.00002059,0.00012705,0.00000981,
 0.00085694,-0.00006240,-0.00049479,-0.00855757,-0.11554887,0.05871821,
 0.12533056,0.27162110,0.,0.,0.,0.,0.,0.,0.00021457,0.00024072,-0.00009
 324,-0.00017957,-0.00043237,-0.00008168,0.,0.,0.,-0.00093200,0.0001259
 2,0.00021842,0.00073732,0.00014159,-0.00018709,0.,0.,0.,0.00010979,0.0
 0004797,0.00026103,-0.00050780,0.00027182,-0.00018262,-0.00047016,-0.0
 0122971,-0.00112207,0.00061827,0.00064784,-0.00042469,-0.00015986,-0.0
 0013422,0.00006057,-0.00240896,0.00091963,-0.00070464,0.00047036,-0.00
 004014,0.00122117,-0.00008539,-0.00001870,-0.00020104,0.00096238,0.000
 75018,-0.00224126,-0.00164245,0.00051915,0.00008439,0.00032574,-0.0001
 3091,-0.00005392,-0.00032981,0.00048604,0.00106870,-0.00000610,0.00005
 358,0.00004406,0.00116902,-0.00077658,-0.00087215,0.00023882,-0.000251
 02,-0.00044782,0.00041551,-0.00159025,0.00066666,-0.00002803,-0.000003
 42,0.00002548,0.00489735,0.00083269,0.01009059,-0.00213062,0.00951200,
 -0.01275114,-0.02290096,-0.01594283,-0.08388990,0.00712359,0.06313534,
 -0.05463506,0.00161044,0.00073266,0.00094689,-0.03130675,-0.02178518,-
 0.00114184,-0.01410617,-0.01205193,-0.00044844,-0.00048403,-0.00065507
 ,0.00034824,-0.00019361,-0.00017852,-0.00054133,0.00107629,0.00017574,
 -0.00030324,0.00167226,0.00046262,0.00004041,-0.00002745,0.00011322,0.
 00030330,-0.00003989,-0.00023802,-0.00024053,0.00012720,0.00003887,0.0
 0004930,-0.00035639,0.00039680,-0.00016487,0.00003815,0.00000344,0.000
 05051,-0.00000544,0.00007163,0.00001989,-0.00005763,-0.00003440,-0.000
 02174,-0.00001210,-0.00005532,0.00002943,-0.00003118,0.00007696,-0.000
 04888,0.00002814,-0.00005834,0.00000963,0.00002038,-0.00004137,-0.0000
 0525,-0.00002741,0.00001961,0.00002821,0.00001080,0.00002441,0.0000128
 7,-0.00003387,-0.00001764,0.00003277,0.00001822,-0.00004162,-0.0000302
 6,-0.00000079,0.00008667,-0.00014841,0.00009599,0.00004363,0.00005426,
 0.00000535,-0.00025288,-0.00004119,-0.00000313,-0.00000481,0.00006734,
 0.00007233,-0.00002917,-0.00004205,-0.00030979,-0.00006983,-0.00016297
 ,-0.00004023,0.00006812,0.00005526,0.00038454,-0.00020300,-0.00005263,
 0.00002104,-0.00015605,-0.00012082,0.00009628,-0.00015820,0.00015416,-
 0.00038422,-0.00008779,-0.00055566,0.00003537,-0.00011353,0.00021613,-
 0.00005030,0.00007369,0.00004621,0.00007025,0.00009358,-0.00015391,0.0
 0189441,-0.00190908,0.00201722,-0.06784690,0.08738976,-0.29588476,0.17
 530635,-0.09442546,0.48289205,0.,0.,0.,0.,0.,0.,0.00047577,0.00043550,
 -0.00039818,-0.00026079,-0.00069434,-0.00018256,0.,0.,0.,-0.00044454,0
 .00104595,-0.00034987,0.00097129,0.00020153,-0.00009936,0.,0.,0.,0.000
 11313,0.00003910,0.00005875,-0.00122686,0.00063358,-0.00046290,0.00036
 624,-0.00229468,-0.00377074,0.00068281,0.00155942,0.00018166,-0.000217
 26,-0.00051557,-0.00028481,-0.00623659,0.00281740,-0.00542922,0.000217
 62,0.00051776,0.00329224,-0.00010317,-0.00010106,-0.00083295,0.0027630
 9,0.00130389,-0.00119410,-0.00226790,0.00124514,-0.00070647,0.00063266
 ,-0.00059964,0.00056133,-0.00093576,0.00038272,0.00223147,-0.00011741,
 -0.00003458,-0.00009741,0.00287859,-0.00138171,-0.00044141,0.00049388,
 -0.00093596,-0.00119611,0.00013400,-0.00220205,0.00128521,-0.00004305,
 -0.00018218,0.00006297,-0.01071735,0.00069361,-0.00707640,0.01233441,-
 0.00192508,0.00670682,0.00972034,0.00539489,-0.00320909,-0.04443523,-0
 .05579128,-0.00122246,-0.00045325,-0.00087844,-0.00126818,-0.00354197,
 -0.00087918,-0.00018944,-0.00138657,-0.00082877,-0.00044878,-0.0000533
 6,-0.00003234,0.00010166,0.00007441,0.00017424,-0.00011391,-0.00080182
 ,0.00020370,0.00024078,-0.00380528,-0.00036913,-0.00108927,0.00041265,
 0.00028668,0.00025071,-0.00012797,-0.00029549,-0.00026390,0.00010033,0
 .00004024,0.00011245,-0.00044959,0.00048631,-0.00019021,0.00009289,-0.
 00002438,0.00004236,-0.00000389,0.00009152,0.00001935,-0.00003873,0.00
 002810,-0.00007288,0.00002457,-0.00007957,0.00001586,-0.00009766,0.000
 04857,-0.00014127,0.00001223,-0.00006019,0.00003810,0.00003142,0.00003
 928,-0.00001491,0.00000374,0.00000837,0.00004373,0.00001958,0.00004637
 ,0.00001747,-0.00011255,-0.00008367,0.00004643,0.00007770,-0.00009840,
 -0.00007749,-0.00023110,-0.00016693,-0.00001974,0.00022453,0.00014827,
 0.00007640,-0.00000517,-0.00057296,-0.00010735,0.00005686,0.00006230,0
 .00004505,0.00020954,-0.00006907,-0.00011956,-0.00055687,-0.00026755,-
 0.00022637,-0.00008193,0.00013410,0.00008887,-0.00019724,-0.00023781,0
 .00010615,0.00004173,0.00002512,0.00009855,0.00018525,-0.00033299,0.00
 026151,-0.00071564,-0.00015194,-0.00057666,-0.00029934,-0.00003292,-0.
 00032645,0.00016251,-0.00007262,0.00003865,0.00002364,0.00038449,-0.00
 003324,0.00360526,-0.00140150,0.00009007,-0.40614944,-0.21172998,-0.16
 349288,-0.04023846,-0.01734563,-0.05238623,0.48958067,0.,0.,0.,0.,0.,0
 .,0.00040289,0.00033640,-0.00029778,-0.00020054,-0.00055889,-0.0001452
 8,0.,0.,0.,-0.00045755,0.00026327,-0.00008398,0.00042514,0.00012902,-0
 .00003617,0.,0.,0.,0.00002082,-0.00000772,0.00028882,-0.00020583,0.000
 08697,-0.00004094,-0.00157190,-0.00164727,-0.00410900,0.00097251,0.001
 33482,0.00003798,-0.00027665,-0.00030580,-0.00017798,-0.00026628,0.001
 66649,0.00033150,0.00052806,-0.00001323,0.00033762,-0.00003282,0.00009
 800,0.00005107,0.00073813,0.00195169,0.00106941,-0.00012130,-0.0009795
 5,0.00033776,0.00057664,0.00045959,-0.00062351,-0.00103839,0.00053193,
 0.00191546,-0.00007943,-0.00006930,-0.00007871,0.00046806,-0.00021937,
 -0.00088294,-0.00013237,-0.00060292,0.00010629,0.00033987,-0.00033004,
 0.00035473,-0.00006981,0.00000375,-0.00008151,0.00275971,-0.00868607,0
 .01020376,0.00659496,0.00323113,0.01235882,-0.00074447,0.00340035,0.00
 200955,-0.06416041,-0.03787031,-0.00887060,-0.00237487,-0.00182888,-0.
 00315657,0.00012551,0.00063534,0.00001277,-0.00078487,-0.00068655,-0.0
 0049223,0.00028662,0.00005953,-0.00007131,0.00001016,0.00020573,-0.000
 03573,-0.00130952,0.00029054,0.00070012,-0.00168117,-0.00014083,-0.000
 62703,0.00024244,-0.00003277,0.00012615,0.00000936,-0.00009309,-0.0000
 4820,0.00003490,0.00001599,0.00003875,-0.00026988,0.00028027,-0.000105
 46,0.00005482,-0.00003034,0.00000815,-0.00000993,0.00004155,0.00000179
 ,-0.00000766,0.00004021,-0.00003484,0.00002603,-0.00005218,0.00001951,
 -0.00006924,0.00006846,-0.00016563,0.00000599,-0.00004267,0.00004150,0
 .00000552,0.00003186,-0.00000127,0.00002467,-0.00001690,0.00002331,0.0
 0001909,-0.00000157,0.00001564,-0.00004258,-0.00002448,-0.00001823,0.0
 0001588,-0.00002144,-0.00003381,-0.00014423,-0.00009023,0.00001163,0.0
 0007933,0.00006947,0.00002529,-0.00003169,-0.00017420,-0.00003982,0.00
 004197,-0.00001279,0.00001443,0.00009883,-0.00001913,-0.00003122,-0.00
 028831,-0.00008833,-0.00005643,-0.00002641,0.00002106,0.00002905,-0.00
 023603,0.00008729,0.00002953,0.00003945,0.00000180,0.00009504,0.000053
 21,-0.00009456,0.00004827,-0.00039104,0.00011062,-0.00015282,-0.000125
 73,0.00003686,-0.00033611,0.00010688,-0.00012211,0.00004164,-0.0000121
 9,0.00021922,-0.00001397,0.00146328,-0.00111009,-0.00067913,-0.2146201
 9,-0.22757448,-0.09669907,-0.00825147,0.01766817,-0.01502088,0.2834155
 4,0.25026224,0.,0.,0.,0.,0.,0.,0.00033974,0.00015851,-0.00024658,-0.00
 032151,-0.00078899,-0.00013763,0.,0.,0.,-0.00132025,0.00187632,-0.0005
 1174,0.00131750,0.00024617,-0.00025338,0.,0.,0.,-0.00016075,0.00040276
 ,0.00118455,-0.00077904,0.00042446,-0.00023041,-0.00190966,-0.00259486
 ,-0.00290070,0.00161191,0.00129284,-0.00182589,-0.00055565,-0.00028263
 ,0.00050241,-0.00588097,0.00252777,-0.00165492,0.00152056,-0.00032928,
 0.00258520,-0.00027994,0.00008173,-0.00026241,0.00103154,0.00424627,-0
 .00795060,-0.00425459,0.00055798,0.00071302,0.00130902,-0.00061158,-0.
 00022325,-0.00080886,0.00089448,0.00240925,-0.00005068,0.00008903,0.00
 004816,0.00159886,-0.00169488,-0.00355838,-0.00023915,0.00002337,-0.00
 015290,0.00074296,-0.00447515,0.00129101,-0.00011704,-0.00006870,-0.00
 014437,-0.01085069,0.00378057,-0.04872843,-0.00045765,0.00364774,-0.00
 072138,0.00644927,0.01244588,-0.00253623,0.00632841,-0.00037004,0.0279
 4521,0.00013980,-0.00091004,-0.00004801,-0.00252492,-0.00086446,0.0000
 0705,-0.00285175,-0.00271533,-0.00051011,-0.00026477,-0.00015873,0.000
 17625,-0.00002156,0.00010029,-0.00042569,-0.00013734,0.00013271,0.0000
 7744,0.00016738,0.00009519,0.00105723,0.00018333,0.00008030,0.00036147
 ,-0.00004342,-0.00021993,-0.00020791,0.00010643,0.00004017,0.00007065,
 -0.00040412,0.00043699,-0.00018657,0.00005855,-0.00000558,0.00004073,-
 0.00000543,0.00007596,0.00001566,-0.00004618,0.00000493,-0.00003988,0.
 00000994,-0.00007437,0.00002817,-0.00009436,0.00009058,-0.00017272,0.0
 0003273,-0.00007851,0.00003033,0.00002271,-0.00000753,-0.00000023,0.00
 000211,0.00000805,0.00004728,0.00002251,0.00002468,0.00002108,-0.00006
 975,-0.00003925,0.00002064,0.00003165,-0.00006000,-0.00005521,-0.00008
 524,0.00001376,-0.00015486,0.00009381,0.00006921,0.00005879,-0.0000239
 3,-0.00036017,-0.00008680,0.00003242,-0.00000818,0.00006956,0.00007746
 ,-0.00001927,-0.00006219,-0.00036463,-0.00004015,-0.00015277,-0.000028
 83,0.00004882,0.00006779,0.00001161,-0.00013161,-0.00009574,0.00005639
 ,-0.00008406,0.00007537,0.00012490,-0.00020605,0.00013835,-0.00055966,
 0.00006024,-0.00047860,-0.00014981,-0.00003557,-0.00025621,0.00007950,
 -0.00007808,0.00004919,0.00003065,0.00028144,-0.00007656,0.00186280,-0
 .00216830,0.00043400,-0.15442376,-0.08888769,-0.17985503,-0.07034970,-
 0.03065967,-0.04229469,0.23427143,0.10332590,0.25904685\\0.,0.,0.,0.,0
 .,0.,0.,0.,-0.00000001,0.,0.,0.,0.,0.,0.,0.,-0.00000002,0.,0.,0.,0.,0.
 ,0.,0.,0.,0.,-0.00000001,0.,0.,0.,0.00000004,-0.00000002,-0.00000002,0
 .,0.00000002,0.,0.,0.,0.,-0.00000002,-0.00000004,-0.00000006,0.,0.,0.,
 0.,0.,0.,0.00000001,0.00000003,0.00000001,0.,0.,0.,0.,0.,0.,0.,0.,0.00
 000002,0.,0.,0.,0.,0.,0.,0.,0.,0.,0.,0.,0.00000001,0.,0.,0.,-0.0000000
 1,0.00000005,0.00000001,0.,0.,0.,0.,0.,0.,0.,0.,0.,0.,0.,0.,0.,0.,0.,0
 .,0.,0.,0.,0.,0.,0.,0.,0.,0.,0.,0.,0.,0.,0.,0.,0.,0.,0.,0.,0.,0.,0.,0.
 ,0.,0.,0.,0.,0.,0.,0.,0.,0.,0.,0.,0.,0.,0.,0.,0.,0.,0.,0.,0.,0.0000000
 1,0.,0.,0.,0.,0.,0.,0.,0.00000001,0.,0.,0.,0.,-0.00000001,0.,0.,0.,0.,
 0.,0.,0.,0.,0.,0.,0.,0.,0.,0.,0.,0.,0.,0.,0.,0.,0.,0.,0.,0.,0.,0.,-0.0
 0000001,0.,0.,0.,0.,0.,0.,0.,0.,0.,0.,0.,0.,0.,0.,0.,0.,0.,0.,0.,0.,0.
 00000002,0.00000002,0.,0.,0.,0.,-0.00000003,-0.00000002,0.00000003\\\@


 CONFIDENCE IS WHAT YOU FEEL BEFORE YOU FULLY
 COMPREHEND THE SITUATION.
 Job cpu time:       2 days  0 hours  7 minutes 15.0 seconds.
 Elapsed time:       0 days  0 hours 45 minutes 60.0 seconds.
 File lengths (MBytes):  RWF=   8712 Int=      0 D2E=      0 Chk=     65 Scr=      2
 Normal termination of Gaussian 16 at Sat Mar 11 09:51:21 2023.
