 Entering Gaussian System, Link 0=g16
 Input=Co_cat_opt_freq_qua.com
 Output=Co_cat_opt_freq_qua.log
 Initial command:
 /apps/commercial/G16/g16.linda/l1.exe "/scratch/x1711a05/Gau-7348.inp" -scrdir="/scratch/x1711a05/"
 Default linda workers: node3544
 Entering Link 1 = /apps/commercial/G16/g16.linda/l1.exe PID=      7349.
  
 Copyright (c) 1988,1990,1992,1993,1995,1998,2003,2009,2016,
            Gaussian, Inc.  All Rights Reserved.
  
 This is part of the Gaussian(R) 16 program.  It is based on
 the Gaussian(R) 09 system (copyright 2009, Gaussian, Inc.),
 the Gaussian(R) 03 system (copyright 2003, Gaussian, Inc.),
 the Gaussian(R) 98 system (copyright 1998, Gaussian, Inc.),
 the Gaussian(R) 94 system (copyright 1995, Gaussian, Inc.),
 the Gaussian 92(TM) system (copyright 1992, Gaussian, Inc.),
 the Gaussian 90(TM) system (copyright 1990, Gaussian, Inc.),
 the Gaussian 88(TM) system (copyright 1988, Gaussian, Inc.),
 the Gaussian 86(TM) system (copyright 1986, Carnegie Mellon
 University), and the Gaussian 82(TM) system (copyright 1983,
 Carnegie Mellon University). Gaussian is a federally registered
 trademark of Gaussian, Inc.
  
 This software contains proprietary and confidential information,
 including trade secrets, belonging to Gaussian, Inc.
  
 This software is provided under written license and may be
 used, copied, transmitted, or stored only in accord with that
 written license.
  
 The following legend is applicable only to US Government
 contracts under FAR:
  
                    RESTRICTED RIGHTS LEGEND
  
 Use, reproduction and disclosure by the US Government is
 subject to restrictions as set forth in subparagraphs (a)
 and (c) of the Commercial Computer Software - Restricted
 Rights clause in FAR 52.227-19.
  
 Gaussian, Inc.
 340 Quinnipiac St., Bldg. 40, Wallingford CT 06492
  
  
 ---------------------------------------------------------------
 Warning -- This program may not be used in any manner that
 competes with the business of Gaussian, Inc. or will provide
 assistance to any competitor of Gaussian, Inc.  The licensee
 of this program is prohibited from giving any competitor of
 Gaussian, Inc. access to this program.  By using this program,
 the user acknowledges that Gaussian, Inc. is engaged in the
 business of creating and licensing software in the field of
 computational chemistry and represents and warrants to the
 licensee that it is not a competitor of Gaussian, Inc. and that
 it will not use this program in any manner prohibited above.
 ---------------------------------------------------------------
  

 Cite this work as:
 Gaussian 16, Revision A.03,
 M. J. Frisch, G. W. Trucks, H. B. Schlegel, G. E. Scuseria, 
 M. A. Robb, J. R. Cheeseman, G. Scalmani, V. Barone, 
 G. A. Petersson, H. Nakatsuji, X. Li, M. Caricato, A. V. Marenich, 
 J. Bloino, B. G. Janesko, R. Gomperts, B. Mennucci, H. P. Hratchian, 
 J. V. Ortiz, A. F. Izmaylov, J. L. Sonnenberg, D. Williams-Young, 
 F. Ding, F. Lipparini, F. Egidi, J. Goings, B. Peng, A. Petrone, 
 T. Henderson, D. Ranasinghe, V. G. Zakrzewski, J. Gao, N. Rega, 
 G. Zheng, W. Liang, M. Hada, M. Ehara, K. Toyota, R. Fukuda, 
 J. Hasegawa, M. Ishida, T. Nakajima, Y. Honda, O. Kitao, H. Nakai, 
 T. Vreven, K. Throssell, J. A. Montgomery, Jr., J. E. Peralta, 
 F. Ogliaro, M. J. Bearpark, J. J. Heyd, E. N. Brothers, K. N. Kudin, 
 V. N. Staroverov, T. A. Keith, R. Kobayashi, J. Normand, 
 K. Raghavachari, A. P. Rendell, J. C. Burant, S. S. Iyengar, 
 J. Tomasi, M. Cossi, J. M. Millam, M. Klene, C. Adamo, R. Cammi, 
 J. W. Ochterski, R. L. Martin, K. Morokuma, O. Farkas, 
 J. B. Foresman, and D. J. Fox, Gaussian, Inc., Wallingford CT, 2016.
 
 ******************************************
 Gaussian 16:  ES64L-G16RevA.03 25-Dec-2016
                 4-Oct-2019 
 ******************************************
 %nprocshared=64
 Will use up to   64 processors via shared memory.
 %mem=64GB
 %chk=Co_cat_opt_freq_qua.chk
 SetLPE:    new flags="-opt 'Tsnet.Node.lindarsharg: ssh'  -nodelist 'node3544' -env GAUSS_MDEF=8589934592 -env GAUSS_EXEDIR="/apps/commercial/G16/g16.linda""
 Will use up to    1 processors via Linda.
 ----------------------------------------------------------------------
 # opt=(calcall,tight,cartesian) freq cam-b3lyp/gen nosymm scf=(qc,maxc
 ycle=1024,vshift=100) pseudo=read
 ----------------------------------------------------------------------
 1/7=10,10=4,18=10,26=3,38=1/1,3;
 2/12=2,15=1,17=6,18=5,29=2,40=1/2;
 3/5=7,11=2,16=1,17=8,25=1,30=1,71=2,74=-40,140=1/1,2,3;
 4//1;
 5/5=2,7=1024,8=3,10=100,38=5/8;
 8/6=4,10=90,11=11/1;
 11/6=1,8=1,9=11,15=111,16=1,31=1/1,2,10;
 10/6=1,31=1/2;
 6/7=2,8=2,9=2,10=2,18=1,28=1/1;
 7/7=1,10=1,25=1,30=1/1,2,3,16;
 1/7=10,10=4,18=10,26=3/3(3);
 2/15=1,29=1/2;
 7/7=1,8=1,9=1,25=1,30=1,44=-1/16;
 99/12=1/99;
 2/15=1,29=1/2;
 3/5=7,6=1,11=2,16=1,17=8,25=1,30=1,71=2,74=-40,82=7,140=1/1,2,3;
 4/5=5,16=3,69=1/1;
 5/5=2,7=1024,8=3,10=100,38=5/8;
 8/6=4,10=90,11=11/1;
 11/6=1,8=1,9=11,15=111,16=1,31=1/1,2,10;
 10/6=1,31=1/2;
 7/7=1,10=1,25=1,30=1/1,2,3,16;
 1/7=10,10=4,18=10,26=3/3(-8);
 2/15=1,29=1/2;
 6/7=2,8=2,9=2,10=2,18=1,19=2,28=1/1;
 7/7=1,8=1,9=1,25=1,30=1,44=-1/16;
 99/12=1/99;
 -------------------
 Co_cat_opt_freq_qua
 -------------------
 Symbolic Z-matrix:
 Charge =  0 Multiplicity = 4
 Li                   -1   -0.65876  -5.04605  -3.46452 
 N                    -1   -0.32836  -3.61409  -2.2819 
 C                    0    -0.82073  -4.01655  -1.07265 
 Cl                   0    -1.43942  -5.62749  -0.93068 
 N                    -1    2.25851   2.61269  -2.48314 
 C                    0     3.21824   2.00538  -1.73547 
 Cl                   0     4.88461   2.42642  -1.84714 
 N                    -1   -3.37906   2.02857   1.06405 
 C                    0    -3.81283   1.62094  -0.15641 
 Cl                   0    -5.37219   2.01794  -0.76875 
 N                    0    -0.16804  -1.93343  -0.82747 
 C                    0    -0.72865  -2.99671  -0.17328 
 Cl                   0    -1.18968  -2.93674   1.46959 
 N                    0    -1.76616   0.81529   0.07791 
 C                    0    -2.8415    0.88291  -0.76965 
 Cl                   0    -2.80289   0.14327  -2.328 
 N                    0     1.30664   1.05375  -1.17125 
 C                    0     2.65405   1.05656  -0.92892 
 Cl                   0     3.35287  -0.0122    0.22717 
 C                    0     0.05241  -2.35368  -2.07835 
 H                    0     0.49254  -1.72364  -2.83832 
 C                    0    -2.16602   1.53502   1.16406 
 H                    0    -1.52526   1.67831   2.02432 
 C                    0     1.14243   2.02191  -2.11973 
 H                    0     0.16604   2.27586  -2.51198 
 Co                   0    -0.09015   0.0112   -0.37548 
 

 GradGradGradGradGradGradGradGradGradGradGradGradGradGradGradGradGradGrad
 Berny optimization.
 Initialization pass.
 No Z-matrix variables, so optimization will use Cartesian coordinates.
 Trust Radius=3.00D-01 FncErr=1.00D-07 GrdErr=1.00D-06 EigMax=2.50D+02 EigMin=1.00D-04
 Number of steps in this run=     88 maximum allowed number of steps=    156.
 GradGradGradGradGradGradGradGradGradGradGradGradGradGradGradGradGradGrad

 ---------------------------------------------------------------------------------------------------
                            Z-MATRIX (ANGSTROMS AND DEGREES)
   CD    Cent   Atom    N1       Length/X        N2       Alpha/Y        N3        Beta/Z          J
 ---------------------------------------------------------------------------------------------------
      1      1  Li      -1  -0.658759         -5.046055         -3.464522
      2      2  N       -1  -0.328360         -3.614087         -2.281904
      3      3  C        0  -0.820734         -4.016552         -1.072646
      4      4  Cl       0  -1.439421         -5.627488         -0.930681
      5      5  N       -1   2.258511          2.612686         -2.483143
      6      6  C        0   3.218241          2.005381         -1.735469
      7      7  Cl       0   4.884612          2.426423         -1.847143
      8      8  N       -1  -3.379063          2.028570          1.064048
      9      9  C        0  -3.812825          1.620937         -0.156409
     10     10  Cl       0  -5.372191          2.017942         -0.768747
     11     11  N        0  -0.168036         -1.933426         -0.827469
     12     12  C        0  -0.728648         -2.996708         -0.173275
     13     13  Cl       0  -1.189677         -2.936740          1.469591
     14     14  N        0  -1.766162          0.815287          0.077907
     15     15  C        0  -2.841496          0.882913         -0.769645
     16     16  Cl       0  -2.802889          0.143272         -2.327996
     17     17  N        0   1.306639          1.053753         -1.171248
     18     18  C        0   2.654054          1.056558         -0.928920
     19     19  Cl       0   3.352868         -0.012197          0.227170
     20     20  C        0   0.052410         -2.353682         -2.078348
     21     21  H        0   0.492535         -1.723640         -2.838318
     22     22  C        0  -2.166019          1.535024          1.164056
     23     23  H        0  -1.525263          1.678306          2.024323
     24     24  C        0   1.142432          2.021910         -2.119733
     25     25  H        0   0.166043          2.275857         -2.511984
     26     26  Co       0  -0.090154          0.011198         -0.375478
 ---------------------------------------------------------------------------------------------------
                         Z-Matrix orientation:                         
 ---------------------------------------------------------------------
 Center     Atomic      Atomic             Coordinates (Angstroms)
 Number     Number       Type             X           Y           Z
 ---------------------------------------------------------------------
      1          3           0       -0.658759   -5.046055   -3.464522
      2          7           0       -0.328360   -3.614087   -2.281904
      3          6           0       -0.820734   -4.016552   -1.072646
      4         17           0       -1.439421   -5.627488   -0.930681
      5          7           0        2.258511    2.612686   -2.483143
      6          6           0        3.218241    2.005381   -1.735469
      7         17           0        4.884612    2.426423   -1.847143
      8          7           0       -3.379063    2.028570    1.064048
      9          6           0       -3.812825    1.620937   -0.156409
     10         17           0       -5.372191    2.017942   -0.768747
     11          7           0       -0.168036   -1.933426   -0.827469
     12          6           0       -0.728648   -2.996708   -0.173275
     13         17           0       -1.189677   -2.936740    1.469591
     14          7           0       -1.766162    0.815287    0.077907
     15          6           0       -2.841496    0.882913   -0.769645
     16         17           0       -2.802889    0.143272   -2.327996
     17          7           0        1.306639    1.053753   -1.171248
     18          6           0        2.654054    1.056558   -0.928920
     19         17           0        3.352868   -0.012197    0.227170
     20          6           0        0.052410   -2.353682   -2.078348
     21          1           0        0.492535   -1.723640   -2.838318
     22          6           0       -2.166019    1.535024    1.164056
     23          1           0       -1.525263    1.678306    2.024323
     24          6           0        1.142432    2.021910   -2.119733
     25          1           0        0.166043    2.275857   -2.511984
     26         27           0       -0.090154    0.011198   -0.375478
 ---------------------------------------------------------------------
                    Distance matrix (angstroms):
                    1          2          3          4          5
     1  Li   0.000000
     2  N    1.886341   0.000000
     3  C    2.609058   1.366278   0.000000
     4  Cl   2.714378   2.667216   1.731486   0.000000
     5  N    8.254083   6.745747   7.444330   9.164350   0.000000
     6  C    8.230644   6.667488   7.281231   8.977872   1.359749
     7  Cl   9.443665   7.990736   8.640761  10.280991   2.708431
     8  N    8.829401   7.234761   6.903188   8.145942   6.686254
     9  C    8.083349   6.638125   6.447742   7.666303   6.577110
    10  Cl   8.909753   7.710358   7.564604   8.599157   7.843500
    11  N    4.108931   2.228386   2.196711   3.908090   5.412626
    12  C    3.877759   2.233317   1.362876   2.828403   6.761946
    13  Cl   5.392268   3.908245   2.786590   3.614388   7.636114
    14  N    6.937613   5.220664   5.056113   6.529423   5.097805
    15  C    6.868724   5.368965   5.308488   6.661612   5.651395
    16  Cl   5.728708   4.499240   4.775875   6.092061   5.633813
    17  N    6.806582   5.069074   5.499403   7.227565   2.248867
    18  C    7.392286   5.704409   6.150712   7.837921   2.234636
    19  Cl   7.420341   5.728918   5.928181   7.472493   3.928540
    20  C    3.110645   1.332307   2.130482   3.776308   5.449363
    21  H    3.571561   2.134773   3.178005   4.755162   4.695588
    22  C    8.185730   6.462583   6.134543   7.497829   5.834371
    23  H    8.723261   6.927163   6.520658   7.881246   5.958797
    24  C    7.416797   5.827005   6.435327   8.160460   1.314045
    25  H    7.429537   5.915134   6.529918   8.218327   2.119601
    26  Co   5.953261   4.102913   4.152416   5.824393   4.089770
                    6          7          8          9         10
     6  C    0.000000
     7  Cl   1.722365   0.000000
     8  N    7.166746   8.770499   0.000000
     9  C    7.216448   8.896786   1.357877   0.000000
    10  Cl   8.644665  10.321424   2.707731   1.721683   0.000000
    11  N    5.273096   6.751094   5.439296   5.135008   6.534523
    12  C    6.560433   7.982535   5.814558   5.552934   6.860306
    13  Cl   7.357086   8.755640   5.441707   5.504289   6.859479
    14  N    5.435893   7.108753   2.246326   2.211969   3.894438
    15  C    6.238042   7.952117   2.227990   1.365364   2.773573
    16  Cl   6.330288   8.033783   3.923301   2.814117   3.542169
    17  N    2.208656   3.891394   5.282293   5.249810   6.760062
    18  C    1.367148   2.773996   6.427692   6.537264   8.085204
    19  Cl   2.817924   3.549068   7.084066   7.359444   9.013322
    20  C    5.398285   6.800958   6.391697   5.867835   7.088896
    21  H    4.748826   6.123381   6.655585   6.075768   7.257932
    22  C    6.133412   7.718375   1.313417   2.112576   3.774715
    23  H    6.061670   7.525585   2.116929   3.160985   4.766073
    24  C    2.111141   3.773837   5.529957   5.345090   6.653232
    25  H    3.161020   4.767555   5.041521   4.670015   5.811835
    26  Co   4.095341   5.722535   4.118124   4.061715   5.664062
                   11         12         13         14         15
    11  N    0.000000
    12  C    1.368512   0.000000
    13  Cl   2.706820   1.707382   0.000000
    14  N    3.305924   3.958640   4.043121   0.000000
    15  C    3.883619   4.457717   4.725720   1.370861   0.000000
    16  Cl   3.675147   4.336447   5.148844   2.704584   1.725403
    17  N    3.349043   4.641614   5.397190   3.325562   4.171030
    18  C    4.112723   5.333164   6.039334   4.539848   5.500599
    19  Cl   4.147306   5.072123   5.543580   5.187627   6.337587
    20  C    1.337875   2.157044   3.804025   4.242523   4.534638
    21  H    2.126941   3.196004   4.781164   4.477972   4.710551
    22  C    4.470822   4.938733   4.587294   1.362948   2.149585
    23  H    4.797853   5.226833   4.660364   2.142748   3.189260
    24  C    4.362563   5.698786   6.550587   3.839984   4.357951
    25  H    4.546126   5.836949   6.697916   3.546014   3.744507
    26  Co   1.997980   3.081568   3.647406   1.913405   2.912926
                   16         17         18         19         20
    16  Cl   0.000000
    17  N    4.365233   0.000000
    18  C    5.706990   1.369035   0.000000
    19  Cl   6.666812   2.697939   1.722534   0.000000
    20  C    3.801294   3.742530   4.440661   4.657359   0.000000
    21  H    3.821728   3.340030   4.005929   4.528549   1.080841
    22  C    3.812742   4.212436   5.276607   5.807733   5.527807
    23  H    4.788668   4.315253   5.155085   5.466601   5.964720
    24  C    4.374724   1.365253   2.152891   3.812030   4.509508
    25  H    3.660099   2.142912   3.191078   4.784768   4.651192
    26  Co   3.344952   1.916038   2.988269   3.495445   2.917661
                   21         22         23         24         25
    21  H    0.000000
    22  C    5.805669   0.000000
    23  H    6.268175   1.082200   0.000000
    24  C    3.868834   4.686809   4.940431   0.000000
    25  H    4.026049   4.415950   4.878080   1.082444   0.000000
    26  Co   3.068350   3.000238   3.255431   2.933369   3.123936
                   26
    26  Co   0.000000
 Symmetry turned off by external request.
 Stoichiometry    C9H3Cl6CoLiN6(4)
 Framework group  C1[X(C9H3Cl6CoLiN6)]
 Deg. of freedom    72
 Full point group                 C1      NOp   1
 Rotational constants (GHZ):           0.1565461           0.1163601           0.0797968
 General basis read from cards:  (5D, 7F)
 ======================================================================================================
                                       Pseudopotential Parameters
 ======================================================================================================
  Center     Atomic      Valence      Angular      Power
  Number     Number     Electrons     Momentum     of R      Exponent        Coefficient   SO-Coeffient
 ======================================================================================================
    1          3
                                   No pseudopotential on this center.
    2          7
                                   No pseudopotential on this center.
    3          6
                                   No pseudopotential on this center.
    4         17
                                   No pseudopotential on this center.
    5          7
                                   No pseudopotential on this center.
    6          6
                                   No pseudopotential on this center.
    7         17
                                   No pseudopotential on this center.
    8          7
                                   No pseudopotential on this center.
    9          6
                                   No pseudopotential on this center.
   10         17
                                   No pseudopotential on this center.
   11          7
                                   No pseudopotential on this center.
   12          6
                                   No pseudopotential on this center.
   13         17
                                   No pseudopotential on this center.
   14          7
                                   No pseudopotential on this center.
   15          6
                                   No pseudopotential on this center.
   16         17
                                   No pseudopotential on this center.
   17          7
                                   No pseudopotential on this center.
   18          6
                                   No pseudopotential on this center.
   19         17
                                   No pseudopotential on this center.
   20          6
                                   No pseudopotential on this center.
   21          1
                                   No pseudopotential on this center.
   22          6
                                   No pseudopotential on this center.
   23          1
                                   No pseudopotential on this center.
   24          6
                                   No pseudopotential on this center.
   25          1
                                   No pseudopotential on this center.
   26         27           17
                                      D and up 
                                                     1      434.1076104      -10.00000000    0.00000000
                                                     2       78.8402758      -66.72402760    0.00000000
                                                     2       19.6037749      -11.71922430    0.00000000
                                      S - D
                                                     0      151.2307582        3.00000000    0.00000000
                                                     1      169.6790026       20.15531100    0.00000000
                                                     2       64.9909423      413.37622440    0.00000000
                                                     2       12.5076287      133.87277050    0.00000000
                                      P - D
                                                     0       92.7319924        5.00000000    0.00000000
                                                     1      121.1910183        6.18923530    0.00000000
                                                     2       48.6265909      326.32159190    0.00000000
                                                     2       11.9966971       73.87889700    0.00000000
 ======================================================================================================
   369 basis functions,   833 primitive gaussians,   393 cartesian basis functions
   112 alpha electrons      109 beta electrons
       nuclear repulsion energy      2917.9599671551 Hartrees.
 NAtoms=   26 NActive=   26 NUniq=   26 SFac= 1.00D+00 NAtFMM=   60 NAOKFM=F Big=F
 Integral buffers will be    131072 words long.
 Raffenetti 2 integral format.
 Two-electron integral symmetry is turned off.
 One-electron integrals computed using PRISM.
   1 Symmetry operations used in ECPInt.
 ECPInt:  NShTT=    6216 NPrTT=   48715 LenC2=    5099 LenP2D=   20972.
 LDataN:  DoStor=T MaxTD1= 4 Len=   56
 NBasis=   369 RedAO= T EigKep=  1.33D-03  NBF=   369
 NBsUse=   369 1.00D-06 EigRej= -1.00D+00 NBFU=   369
 ExpMin= 2.30D-02 ExpMax= 2.52D+04 ExpMxC= 3.78D+03 IAcc=3 IRadAn=         5 AccDes= 0.00D+00
 Harris functional with IExCor=20419 and IRadAn=       5 diagonalized for initial guess.
 HarFok:  IExCor=20419 AccDes= 0.00D+00 IRadAn=         5 IDoV= 1 UseB2=F ITyADJ=14
 ICtDFT=  3500011 ScaDFX=  1.000000  1.000000  1.000000  1.000000
 FoFCou: FMM=F IPFlag=           0 FMFlag=      100000 FMFlg1=           0
         NFxFlg=           0 DoJE=T BraDBF=F KetDBF=T FulRan=T
         wScrn=  0.000000 ICntrl=       500 IOpCl=  0 I1Cent=   200000004 NGrid=           0
         NMat0=    1 NMatS0=      1 NMatT0=    0 NMatD0=    1 NMtDS0=    0 NMtDT0=    0
 Symmetry not used in FoFCou.
 Initial guess <Sx>= 0.0000 <Sy>= 0.0000 <Sz>= 1.5000 <S**2>= 3.7500 S= 1.5000
 Gradient too large for Newton-Raphson -- use scaled steepest descent instead.
     Accept linear search using points  3 and  4.
 Gradient too large for Newton-Raphson -- use scaled steepest descent instead.
 Gradient too large for Newton-Raphson -- use scaled steepest descent instead.
     Accept linear search using points  1 and  2.
 Gradient too large for Newton-Raphson -- use scaled steepest descent instead.
     Accept linear search using points  4 and  5.
     Minimum is close to point  5 DX= -3.44D-02 DF= -1.29D-05 DXR=  2.07D-02 DFR=  8.31D-05 which will be used.
 Gradient too large for Newton-Raphson -- use scaled steepest descent instead.
 Gradient too large for Newton-Raphson -- use scaled steepest descent instead.
     Accept linear search using points  1 and  2.
 Restarting incremental Fock formation.
 Gradient too large for Newton-Raphson -- use scaled steepest descent instead.
     Accept linear search using points  1 and  2.
 Gradient too large for Newton-Raphson -- use scaled steepest descent instead.
     Accept linear search using points  1 and  2.
 Gradient too large for Newton-Raphson -- use scaled steepest descent instead.
     Accept linear search using points  2 and  3.
 Gradient too large for Newton-Raphson -- use scaled steepest descent instead.
     Minimum is close to point  2 DX=  1.39D-02 DF= -3.13D-05 DXR=  2.26D-02 DFR=  5.11D-04 which will be used.
 Gradient too large for Newton-Raphson -- use scaled steepest descent instead.
     Accept linear search using points  2 and  3.
 Gradient too large for Newton-Raphson -- use scaled steepest descent instead.
     Accept linear search using points  1 and  2.
 Gradient too large for Newton-Raphson -- use scaled steepest descent instead.
     Accept linear search using points  2 and  3.
 Gradient too large for Newton-Raphson -- use scaled steepest descent instead.
     Accept linear search using points  1 and  2.
 Gradient too large for Newton-Raphson -- use scaled steepest descent instead.
 Restarting incremental Fock formation.
     Accept linear search using points  2 and  3.
 Gradient too large for Newton-Raphson -- use scaled steepest descent instead.
     Accept linear search using points  1 and  2.
 Gradient too large for Newton-Raphson -- use scaled steepest descent instead.
     Accept linear search using points  2 and  3.
 Gradient too large for Newton-Raphson -- use scaled steepest descent instead.
     Accept linear search using points  1 and  2.
 Gradient too large for Newton-Raphson -- use scaled steepest descent instead.
     Accept linear search using points  2 and  3.
 Gradient too large for Newton-Raphson -- use scaled steepest descent instead.
     Accept linear search using points  1 and  2.
 LinEq1:  Iter=  0 NonCon=     1 RMS=9.54D-05 Max=1.10D-02 NDo=     1
 AX will form     1 AO Fock derivatives at one time.
 LinEq1:  Iter=  1 NonCon=     1 RMS=5.86D-05 Max=3.65D-03 NDo=     1
 LinEq1:  Iter=  2 NonCon=     1 RMS=6.36D-05 Max=6.11D-03 NDo=     1
 LinEq1:  Iter=  3 NonCon=     1 RMS=1.58D-05 Max=1.19D-03 NDo=     1
 LinEq1:  Iter=  4 NonCon=     1 RMS=1.25D-05 Max=7.16D-04 NDo=     1
 LinEq1:  Iter=  5 NonCon=     1 RMS=5.52D-06 Max=3.59D-04 NDo=     1
 LinEq1:  Iter=  6 NonCon=     1 RMS=3.69D-06 Max=1.56D-04 NDo=     1
 LinEq1:  Iter=  7 NonCon=     1 RMS=2.21D-06 Max=1.16D-04 NDo=     1
 LinEq1:  Iter=  8 NonCon=     1 RMS=1.67D-06 Max=6.78D-05 NDo=     1
 LinEq1:  Iter=  9 NonCon=     1 RMS=1.10D-06 Max=5.70D-05 NDo=     1
 LinEq1:  Iter= 10 NonCon=     1 RMS=6.84D-07 Max=3.45D-05 NDo=     1
 LinEq1:  Iter= 11 NonCon=     1 RMS=3.34D-07 Max=1.47D-05 NDo=     1
 LinEq1:  Iter= 12 NonCon=     1 RMS=2.38D-07 Max=1.20D-05 NDo=     1
 LinEq1:  Iter= 13 NonCon=     1 RMS=1.38D-07 Max=5.42D-06 NDo=     1
 LinEq1:  Iter= 14 NonCon=     1 RMS=7.69D-08 Max=3.63D-06 NDo=     1
 LinEq1:  Iter= 15 NonCon=     1 RMS=4.82D-08 Max=1.83D-06 NDo=     1
 LinEq1:  Iter= 16 NonCon=     1 RMS=3.27D-08 Max=2.01D-06 NDo=     1
 LinEq1:  Iter= 17 NonCon=     1 RMS=2.11D-08 Max=1.11D-06 NDo=     1
 LinEq1:  Iter= 18 NonCon=     1 RMS=1.57D-08 Max=6.56D-07 NDo=     1
 LinEq1:  Iter= 19 NonCon=     1 RMS=1.24D-08 Max=4.78D-07 NDo=     1
 LinEq1:  Iter= 20 NonCon=     1 RMS=5.77D-09 Max=2.43D-07 NDo=     1
 LinEq1:  Iter= 21 NonCon=     0 RMS=3.11D-09 Max=1.54D-07 NDo=     1
 Linear equations converged to 2.390D-08 2.390D-07 after    21 iterations.
 Incorrect curvature in search direction -- initial direction reversed.
     Minimum is close to point  4 DX= -1.54D-03 DF= -3.77D-11 DXR=  1.57D-02 DFR=  3.11D-04 which will be used.
 LinEq1:  Iter=  0 NonCon=     1 RMS=1.05D-04 Max=1.20D-02 NDo=     1
 LinEq1:  Iter=  1 NonCon=     1 RMS=6.48D-05 Max=3.96D-03 NDo=     1
 LinEq1:  Iter=  2 NonCon=     1 RMS=7.01D-05 Max=6.71D-03 NDo=     1
 LinEq1:  Iter=  3 NonCon=     1 RMS=1.80D-05 Max=1.31D-03 NDo=     1
 LinEq1:  Iter=  4 NonCon=     1 RMS=1.54D-05 Max=8.97D-04 NDo=     1
 LinEq1:  Iter=  5 NonCon=     1 RMS=6.29D-06 Max=3.94D-04 NDo=     1
 LinEq1:  Iter=  6 NonCon=     1 RMS=4.59D-06 Max=1.82D-04 NDo=     1
 LinEq1:  Iter=  7 NonCon=     1 RMS=2.71D-06 Max=1.24D-04 NDo=     1
 LinEq1:  Iter=  8 NonCon=     1 RMS=1.96D-06 Max=8.37D-05 NDo=     1
 LinEq1:  Iter=  9 NonCon=     1 RMS=1.40D-06 Max=6.98D-05 NDo=     1
 LinEq1:  Iter= 10 NonCon=     1 RMS=8.53D-07 Max=4.97D-05 NDo=     1
 LinEq1:  Iter= 11 NonCon=     1 RMS=4.28D-07 Max=1.92D-05 NDo=     1
 LinEq1:  Iter= 12 NonCon=     1 RMS=2.74D-07 Max=1.20D-05 NDo=     1
 LinEq1:  Iter= 13 NonCon=     1 RMS=1.93D-07 Max=7.34D-06 NDo=     1
 LinEq1:  Iter= 14 NonCon=     1 RMS=1.04D-07 Max=5.39D-06 NDo=     1
 LinEq1:  Iter= 15 NonCon=     1 RMS=7.05D-08 Max=2.64D-06 NDo=     1
 LinEq1:  Iter= 16 NonCon=     1 RMS=4.01D-08 Max=2.43D-06 NDo=     1
 LinEq1:  Iter= 17 NonCon=     1 RMS=2.49D-08 Max=1.21D-06 NDo=     1
 LinEq1:  Iter= 18 NonCon=     1 RMS=1.50D-08 Max=6.16D-07 NDo=     1
 LinEq1:  Iter= 19 NonCon=     1 RMS=1.30D-08 Max=5.34D-07 NDo=     1
 LinEq1:  Iter= 20 NonCon=     1 RMS=7.24D-09 Max=3.02D-07 NDo=     1
 LinEq1:  Iter= 21 NonCon=     0 RMS=3.60D-09 Max=1.11D-07 NDo=     1
 Linear equations converged to 2.390D-08 2.390D-07 after    21 iterations.
 Incorrect curvature in search direction -- initial direction reversed.
 Restarting incremental Fock formation.
 Gradient too large for Newton-Raphson -- use scaled steepest descent instead.
     Accept linear search using points  2 and  3.
 Gradient too large for Newton-Raphson -- use scaled steepest descent instead.
     Accept linear search using points  1 and  2.
 LinEq1:  Iter=  0 NonCon=     1 RMS=9.38D-05 Max=9.11D-03 NDo=     1
 LinEq1:  Iter=  1 NonCon=     1 RMS=7.51D-05 Max=3.32D-03 NDo=     1
 LinEq1:  Iter=  2 NonCon=     1 RMS=4.26D-05 Max=4.23D-03 NDo=     1
 LinEq1:  Iter=  3 NonCon=     1 RMS=1.18D-05 Max=9.70D-04 NDo=     1
 LinEq1:  Iter=  4 NonCon=     1 RMS=1.12D-05 Max=8.79D-04 NDo=     1
 LinEq1:  Iter=  5 NonCon=     1 RMS=4.75D-06 Max=2.98D-04 NDo=     1
 LinEq1:  Iter=  6 NonCon=     1 RMS=3.97D-06 Max=1.77D-04 NDo=     1
 LinEq1:  Iter=  7 NonCon=     1 RMS=2.04D-06 Max=9.68D-05 NDo=     1
 LinEq1:  Iter=  8 NonCon=     1 RMS=1.42D-06 Max=7.38D-05 NDo=     1
 LinEq1:  Iter=  9 NonCon=     1 RMS=8.97D-07 Max=3.79D-05 NDo=     1
 LinEq1:  Iter= 10 NonCon=     1 RMS=5.19D-07 Max=2.59D-05 NDo=     1
 LinEq1:  Iter= 11 NonCon=     1 RMS=3.08D-07 Max=1.52D-05 NDo=     1
 LinEq1:  Iter= 12 NonCon=     1 RMS=2.18D-07 Max=1.04D-05 NDo=     1
 LinEq1:  Iter= 13 NonCon=     1 RMS=1.41D-07 Max=5.22D-06 NDo=     1
 LinEq1:  Iter= 14 NonCon=     1 RMS=9.40D-08 Max=3.61D-06 NDo=     1
 LinEq1:  Iter= 15 NonCon=     1 RMS=7.34D-08 Max=4.22D-06 NDo=     1
 LinEq1:  Iter= 16 NonCon=     1 RMS=4.59D-08 Max=2.80D-06 NDo=     1
 LinEq1:  Iter= 17 NonCon=     1 RMS=3.13D-08 Max=1.15D-06 NDo=     1
 LinEq1:  Iter= 18 NonCon=     1 RMS=1.86D-08 Max=6.60D-07 NDo=     1
 LinEq1:  Iter= 19 NonCon=     1 RMS=9.48D-09 Max=3.65D-07 NDo=     1
 LinEq1:  Iter= 20 NonCon=     0 RMS=5.19D-09 Max=1.67D-07 NDo=     1
 Linear equations converged to 2.390D-08 2.390D-07 after    20 iterations.
 Incorrect curvature in search direction -- initial direction reversed.
     Minimum is close to point  3 DX=  1.38D-01 DF= -4.03D-05 DXR=  8.96D-02 DFR=  1.70D-02 which will be used.
 Gradient too large for Newton-Raphson -- use scaled steepest descent instead.
 Gradient too large for Newton-Raphson -- use scaled steepest descent instead.
     Accept linear search using points  1 and  2.
     Minimum is close to point  2 DX= -3.72D-02 DF= -1.42D-06 DXR=  4.88D-02 DFR=  1.45D-03 which will be used.
 Gradient too large for Newton-Raphson -- use scaled steepest descent instead.
     Minimum is close to point  2 DX=  8.09D-02 DF= -5.91D-06 DXR=  8.24D-02 DFR=  6.84D-03 which will be used.
 Gradient too large for Newton-Raphson -- use scaled steepest descent instead.
     Minimum is close to point  2 DX=  3.59D-02 DF= -1.21D-06 DXR=  3.84D-02 DFR=  1.48D-03 which will be used.
 Gradient too large for Newton-Raphson -- use scaled steepest descent instead.
     Accept linear search using points  1 and  2.
 Gradient too large for Newton-Raphson -- use scaled steepest descent instead.
     Accept linear search using points  1 and  2.
     Minimum is close to point  2 DX= -6.41D-02 DF= -3.73D-06 DXR=  7.66D-02 DFR=  4.85D-03 which will be used.
 Gradient too large for Newton-Raphson -- use scaled steepest descent instead.
 Restarting incremental Fock formation.
     Accept linear search using points  1 and  2.
 Gradient too large for Newton-Raphson -- use scaled steepest descent instead.
 Gradient too large for Newton-Raphson -- use scaled steepest descent instead.
     Accept linear search using points  1 and  2.
 Gradient too large for Newton-Raphson -- use scaled steepest descent instead.
 Gradient too large for Newton-Raphson -- use scaled steepest descent instead.
     Accept linear search using points  1 and  2.
 Gradient too large for Newton-Raphson -- use scaled steepest descent instead.
 Gradient too large for Newton-Raphson -- use scaled steepest descent instead.
     Accept linear search using points  1 and  2.
 Gradient too large for Newton-Raphson -- use scaled steepest descent instead.
     Accept linear search using points  2 and  3.
 Gradient too large for Newton-Raphson -- use scaled steepest descent instead.
 Restarting incremental Fock formation.
     Accept linear search using points  1 and  2.
 Gradient too large for Newton-Raphson -- use scaled steepest descent instead.
     Accept linear search using points  2 and  3.
 Gradient too large for Newton-Raphson -- use scaled steepest descent instead.
     Accept linear search using points  1 and  2.
 Gradient too large for Newton-Raphson -- use scaled steepest descent instead.
     Accept linear search using points  2 and  3.
     Minimum is close to point  3 DX= -1.50D-01 DF= -5.57D-06 DXR=  9.09D-02 DFR=  7.47D-03 which will be used.
 Gradient too large for Newton-Raphson -- use scaled steepest descent instead.
     Accept linear search using points  1 and  2.
 Gradient too large for Newton-Raphson -- use scaled steepest descent instead.
     Accept linear search using points  2 and  3.
     Minimum is close to point  3 DX= -5.46D-03 DF= -4.99D-09 DXR=  2.88D-03 DFR=  6.64D-06 which will be used.
 Gradient too large for Newton-Raphson -- use scaled steepest descent instead.
     Accept linear search using points  1 and  2.
 Gradient too large for Newton-Raphson -- use scaled steepest descent instead.
     Accept linear search using points  2 and  3.
     Minimum is close to point  3 DX= -1.32D-01 DF= -3.42D-06 DXR=  7.09D-02 DFR=  5.06D-03 which will be used.
 Gradient too large for Newton-Raphson -- use scaled steepest descent instead.
     Accept linear search using points  1 and  2.
 Gradient too large for Newton-Raphson -- use scaled steepest descent instead.
 Restarting incremental Fock formation.
     Minimum is close to point  3 DX=  1.01D-01 DF= -1.57D-06 DXR=  4.83D-02 DFR=  2.34D-03 which will be used.
 Gradient too large for Newton-Raphson -- use scaled steepest descent instead.
     Accept linear search using points  1 and  2.
 Gradient too large for Newton-Raphson -- use scaled steepest descent instead.
     Accept linear search using points  2 and  3.
 Gradient too large for Newton-Raphson -- use scaled steepest descent instead.
     Accept linear search using points  1 and  2.
 Gradient too large for Newton-Raphson -- use scaled steepest descent instead.
     Accept linear search using points  2 and  3.
     Minimum is close to point  3 DX= -1.07D-01 DF= -1.64D-06 DXR=  5.66D-02 DFR=  3.22D-03 which will be used.
 Gradient too large for Newton-Raphson -- use scaled steepest descent instead.
     Accept linear search using points  1 and  2.
 Gradient too large for Newton-Raphson -- use scaled steepest descent instead.
     Minimum is close to point  3 DX=  7.98D-02 DF= -7.29D-07 DXR=  3.84D-02 DFR=  1.48D-03 which will be used.
 Gradient too large for Newton-Raphson -- use scaled steepest descent instead.
     Minimum is close to point  3 DX=  4.86D-02 DF= -3.49D-06 DXR=  8.86D-02 DFR=  7.91D-03 which will be used.
 LinEq1:  Iter=  0 NonCon=     1 RMS=1.09D-04 Max=1.02D-02 NDo=     1
 LinEq1:  Iter=  1 NonCon=     1 RMS=6.07D-05 Max=2.49D-03 NDo=     1
 LinEq1:  Iter=  2 NonCon=     1 RMS=1.44D-05 Max=8.09D-04 NDo=     1
 LinEq1:  Iter=  3 NonCon=     1 RMS=5.99D-06 Max=3.15D-04 NDo=     1
 LinEq1:  Iter=  4 NonCon=     1 RMS=6.71D-06 Max=3.68D-04 NDo=     1
 LinEq1:  Iter=  5 NonCon=     1 RMS=2.39D-06 Max=7.05D-05 NDo=     1
 LinEq1:  Iter=  6 NonCon=     1 RMS=1.59D-06 Max=5.12D-05 NDo=     1
 LinEq1:  Iter=  7 NonCon=     1 RMS=6.51D-07 Max=2.31D-05 NDo=     1
 LinEq1:  Iter=  8 NonCon=     1 RMS=4.27D-07 Max=2.43D-05 NDo=     1
 LinEq1:  Iter=  9 NonCon=     1 RMS=3.02D-07 Max=1.35D-05 NDo=     1
 LinEq1:  Iter= 10 NonCon=     1 RMS=1.99D-07 Max=6.91D-06 NDo=     1
 LinEq1:  Iter= 11 NonCon=     1 RMS=1.46D-07 Max=4.80D-06 NDo=     1
 LinEq1:  Iter= 12 NonCon=     1 RMS=8.00D-08 Max=4.67D-06 NDo=     1
 LinEq1:  Iter= 13 NonCon=     1 RMS=4.01D-08 Max=2.04D-06 NDo=     1
 LinEq1:  Iter= 14 NonCon=     1 RMS=2.63D-08 Max=9.74D-07 NDo=     1
 LinEq1:  Iter= 15 NonCon=     1 RMS=1.54D-08 Max=5.50D-07 NDo=     1
 LinEq1:  Iter= 16 NonCon=     1 RMS=7.21D-09 Max=2.66D-07 NDo=     1
 LinEq1:  Iter= 17 NonCon=     0 RMS=5.12D-09 Max=2.35D-07 NDo=     1
 Linear equations converged to 2.390D-08 2.390D-07 after    17 iterations.
     Minimum is close to point  3 DX=  8.63D-03 DF= -1.06D-05 DXR=  4.14D-02 DFR=  1.71D-03 which will be used.
 Gradient too large for Newton-Raphson -- use scaled steepest descent instead.
 Restarting incremental Fock formation.
 Gradient too large for Newton-Raphson -- use scaled steepest descent instead.
     Accept linear search using points  1 and  2.
 LinEq1:  Iter=  0 NonCon=     1 RMS=5.83D-05 Max=4.79D-03 NDo=     1
 LinEq1:  Iter=  1 NonCon=     1 RMS=4.72D-05 Max=2.32D-03 NDo=     1
 LinEq1:  Iter=  2 NonCon=     1 RMS=1.06D-05 Max=4.84D-04 NDo=     1
 LinEq1:  Iter=  3 NonCon=     1 RMS=7.74D-06 Max=3.58D-04 NDo=     1
 LinEq1:  Iter=  4 NonCon=     1 RMS=4.34D-06 Max=3.94D-04 NDo=     1
 LinEq1:  Iter=  5 NonCon=     1 RMS=3.49D-06 Max=1.68D-04 NDo=     1
 LinEq1:  Iter=  6 NonCon=     1 RMS=2.02D-06 Max=9.23D-05 NDo=     1
 LinEq1:  Iter=  7 NonCon=     1 RMS=1.20D-06 Max=6.36D-05 NDo=     1
 LinEq1:  Iter=  8 NonCon=     1 RMS=7.72D-07 Max=3.58D-05 NDo=     1
 LinEq1:  Iter=  9 NonCon=     1 RMS=4.56D-07 Max=2.38D-05 NDo=     1
 LinEq1:  Iter= 10 NonCon=     1 RMS=3.08D-07 Max=1.29D-05 NDo=     1
 LinEq1:  Iter= 11 NonCon=     1 RMS=1.93D-07 Max=7.86D-06 NDo=     1
 LinEq1:  Iter= 12 NonCon=     1 RMS=1.31D-07 Max=7.81D-06 NDo=     1
 LinEq1:  Iter= 13 NonCon=     1 RMS=9.07D-08 Max=5.96D-06 NDo=     1
 LinEq1:  Iter= 14 NonCon=     1 RMS=5.14D-08 Max=2.46D-06 NDo=     1
 LinEq1:  Iter= 15 NonCon=     1 RMS=2.10D-08 Max=6.60D-07 NDo=     1
 LinEq1:  Iter= 16 NonCon=     1 RMS=1.25D-08 Max=4.04D-07 NDo=     1
 LinEq1:  Iter= 17 NonCon=     1 RMS=8.21D-09 Max=3.82D-07 NDo=     1
 LinEq1:  Iter= 18 NonCon=     1 RMS=5.68D-09 Max=3.32D-07 NDo=     1
 LinEq1:  Iter= 19 NonCon=     1 RMS=4.57D-09 Max=2.61D-07 NDo=     1
 LinEq1:  Iter= 20 NonCon=     0 RMS=2.64D-09 Max=1.14D-07 NDo=     1
 Linear equations converged to 2.390D-08 2.390D-07 after    20 iterations.
     Accept linear search using points  1 and  2.
 LinEq1:  Iter=  0 NonCon=     1 RMS=2.16D-05 Max=1.02D-03 NDo=     1
 LinEq1:  Iter=  1 NonCon=     1 RMS=2.03D-05 Max=8.70D-04 NDo=     1
 LinEq1:  Iter=  2 NonCon=     1 RMS=7.70D-06 Max=5.58D-04 NDo=     1
 LinEq1:  Iter=  3 NonCon=     1 RMS=4.98D-06 Max=2.19D-04 NDo=     1
 LinEq1:  Iter=  4 NonCon=     1 RMS=3.08D-06 Max=1.72D-04 NDo=     1
 LinEq1:  Iter=  5 NonCon=     1 RMS=2.43D-06 Max=1.20D-04 NDo=     1
 LinEq1:  Iter=  6 NonCon=     1 RMS=1.58D-06 Max=7.12D-05 NDo=     1
 LinEq1:  Iter=  7 NonCon=     1 RMS=9.87D-07 Max=3.38D-05 NDo=     1
 LinEq1:  Iter=  8 NonCon=     1 RMS=6.44D-07 Max=2.61D-05 NDo=     1
 LinEq1:  Iter=  9 NonCon=     1 RMS=4.11D-07 Max=2.08D-05 NDo=     1
 LinEq1:  Iter= 10 NonCon=     1 RMS=2.71D-07 Max=1.25D-05 NDo=     1
 LinEq1:  Iter= 11 NonCon=     1 RMS=2.01D-07 Max=9.28D-06 NDo=     1
 LinEq1:  Iter= 12 NonCon=     1 RMS=1.19D-07 Max=3.99D-06 NDo=     1
 LinEq1:  Iter= 13 NonCon=     1 RMS=6.33D-08 Max=1.59D-06 NDo=     1
 LinEq1:  Iter= 14 NonCon=     1 RMS=3.49D-08 Max=1.36D-06 NDo=     1
 LinEq1:  Iter= 15 NonCon=     1 RMS=1.37D-08 Max=5.20D-07 NDo=     1
 LinEq1:  Iter= 16 NonCon=     1 RMS=7.44D-09 Max=3.41D-07 NDo=     1
 LinEq1:  Iter= 17 NonCon=     1 RMS=5.73D-09 Max=2.75D-07 NDo=     1
 LinEq1:  Iter= 18 NonCon=     0 RMS=3.88D-09 Max=1.95D-07 NDo=     1
 Linear equations converged to 2.390D-08 2.390D-07 after    18 iterations.
     Minimum is close to point  2 DX=  2.94D-03 DF= -1.81D-10 DXR=  2.93D-03 DFR=  8.59D-06 which will be used.
 LinEq1:  Iter=  0 NonCon=     1 RMS=1.50D-07 Max=6.79D-06 NDo=     1
 LinEq1:  Iter=  1 NonCon=     1 RMS=1.38D-07 Max=6.29D-06 NDo=     1
 LinEq1:  Iter=  2 NonCon=     1 RMS=7.76D-08 Max=7.07D-06 NDo=     1
 LinEq1:  Iter=  3 NonCon=     1 RMS=4.61D-08 Max=2.15D-06 NDo=     1
 LinEq1:  Iter=  4 NonCon=     1 RMS=2.58D-08 Max=9.04D-07 NDo=     1
 LinEq1:  Iter=  5 NonCon=     1 RMS=1.89D-08 Max=6.50D-07 NDo=     1
 LinEq1:  Iter=  6 NonCon=     1 RMS=1.16D-08 Max=5.25D-07 NDo=     1
 LinEq1:  Iter=  7 NonCon=     1 RMS=7.77D-09 Max=3.98D-07 NDo=     1
 LinEq1:  Iter=  8 NonCon=     1 RMS=5.12D-09 Max=2.34D-07 NDo=     1
 LinEq1:  Iter=  9 NonCon=     1 RMS=3.64D-09 Max=1.35D-07 NDo=     1
 LinEq1:  Iter= 10 NonCon=     1 RMS=2.57D-09 Max=1.17D-07 NDo=     1
 LinEq1:  Iter= 11 NonCon=     1 RMS=1.51D-09 Max=6.49D-08 NDo=     1
 LinEq1:  Iter= 12 NonCon=     1 RMS=1.05D-09 Max=4.28D-08 NDo=     1
 LinEq1:  Iter= 13 NonCon=     1 RMS=4.92D-10 Max=1.60D-08 NDo=     1
 LinEq1:  Iter= 14 NonCon=     1 RMS=2.75D-10 Max=8.01D-09 NDo=     1
 LinEq1:  Iter= 15 NonCon=     1 RMS=1.64D-10 Max=6.46D-09 NDo=     1
 LinEq1:  Iter= 16 NonCon=     1 RMS=1.05D-10 Max=6.08D-09 NDo=     1
 LinEq1:  Iter= 17 NonCon=     1 RMS=7.17D-11 Max=4.19D-09 NDo=     1
 LinEq1:  Iter= 18 NonCon=     1 RMS=5.59D-11 Max=3.36D-09 NDo=     1
 LinEq1:  Iter= 19 NonCon=     0 RMS=2.57D-11 Max=8.73D-10 NDo=     1
 Linear equations converged to 3.273D-10 3.273D-09 after    19 iterations.
 SCF Done:  E(UCAM-B3LYP) =  -3586.69153698     a.u. after   63 cycles
            Convg  =    0.4148D-06                   286 Fock formations.
              S**2 =  3.7563                  -V/T =  2.0191
 <Sx>= 0.0000 <Sy>= 0.0000 <Sz>= 1.5000 <S**2>= 3.7563 S= 1.5016
 <L.S>=  0.00000000000    
 Annihilation of the first spin contaminant:
 S**2 before annihilation     3.7563,   after     3.7500
 DoSCS=F DFT=T ScalE2(SS,OS)=  1.000000  1.000000
 Range of M.O.s used for correlation:     1   369
 NBasis=   369 NAE=   112 NBE=   109 NFC=     0 NFV=     0
 NROrb=    369 NOA=   112 NOB=   109 NVA=   257 NVB=   260
   1 Symmetry operations used in ECPInt.
 ECPInt:  NShTT=    6216 NPrTT=   48715 LenC2=    5099 LenP2D=   20972.
 LDataN:  DoStor=T MaxTD1= 5 Len=  102
 Number of processors reduced to  36 by ecpmxn.
 Symmetrizing basis deriv contribution to polar:
 IMax=3 JMax=2 DiffMx= 0.00D+00
 G2DrvN: will do    27 centers at a time, making    1 passes.
 Calling FoFCou, ICntrl=  3107 FMM=F I1Cent=   0 AccDes= 0.00D+00.
 End of G2Drv F.D. properties file   721 does not exist.
 End of G2Drv F.D. properties file   722 does not exist.
 End of G2Drv F.D. properties file   788 does not exist.
          IDoAtm=00110110111111111111111111
          Differentiating once with respect to electric field.
                with respect to dipole field.
          Differentiating once with respect to nuclear coordinates.
 CalDSu exits because no D1Ps are significant.
          There are    69 degrees of freedom in the 1st order CPHF.  IDoFFX=6 NUNeed=     3.
     69 vectors produced by pass  0 Test12= 8.28D-14 1.45D-09 XBig12= 2.40D+02 3.88D+00.
 AX will form    69 AO Fock derivatives at one time.
     69 vectors produced by pass  1 Test12= 8.28D-14 1.45D-09 XBig12= 3.41D+01 1.16D+00.
     69 vectors produced by pass  2 Test12= 8.28D-14 1.45D-09 XBig12= 1.26D+00 2.20D-01.
     69 vectors produced by pass  3 Test12= 8.28D-14 1.45D-09 XBig12= 5.15D-02 2.99D-02.
     69 vectors produced by pass  4 Test12= 8.28D-14 1.45D-09 XBig12= 1.03D-03 5.17D-03.
     69 vectors produced by pass  5 Test12= 8.28D-14 1.45D-09 XBig12= 1.64D-05 5.29D-04.
     69 vectors produced by pass  6 Test12= 8.28D-14 1.45D-09 XBig12= 2.18D-07 4.22D-05.
     69 vectors produced by pass  7 Test12= 8.28D-14 1.45D-09 XBig12= 2.46D-09 4.21D-06.
     40 vectors produced by pass  8 Test12= 8.28D-14 1.45D-09 XBig12= 2.48D-11 4.83D-07.
      3 vectors produced by pass  9 Test12= 8.28D-14 1.45D-09 XBig12= 2.73D-13 4.67D-08.
      3 vectors produced by pass 10 Test12= 8.28D-14 1.45D-09 XBig12= 2.89D-15 3.56D-09.
 InvSVY:  IOpt=1 It=  1 EMax= 1.42D-14
 Solved reduced A of dimension   598 with    69 vectors.
 Isotropic polarizability for W=    0.000000      210.84 Bohr**3.
 End of Minotr F.D. properties file   721 does not exist.
 End of Minotr F.D. properties file   722 does not exist.
 End of Minotr F.D. properties file   788 does not exist.

 **********************************************************************

            Population analysis using the SCF density.

 **********************************************************************

 Alpha  occ. eigenvalues -- -101.67585-101.64408-101.61484-101.60862-101.58403
 Alpha  occ. eigenvalues -- -101.58222 -14.47193 -14.46459 -14.42550 -14.42454
 Alpha  occ. eigenvalues --  -14.37601 -14.37508 -10.37917 -10.37803 -10.36231
 Alpha  occ. eigenvalues --  -10.32094 -10.31889 -10.31023 -10.30835 -10.29646
 Alpha  occ. eigenvalues --  -10.29455  -9.60795  -9.57593  -9.54658  -9.54045
 Alpha  occ. eigenvalues --   -9.51668  -9.51486  -7.37201  -7.36295  -7.36178
 Alpha  occ. eigenvalues --   -7.34078  -7.33005  -7.32990  -7.31086  -7.30481
 Alpha  occ. eigenvalues --   -7.30119  -7.30077  -7.29497  -7.29461  -7.28111
 Alpha  occ. eigenvalues --   -7.27930  -7.27100  -7.27078  -7.26919  -7.26897
 Alpha  occ. eigenvalues --   -3.98013  -2.68836  -2.68797  -2.65327  -2.17689
 Alpha  occ. eigenvalues --   -1.15509  -1.08959  -1.08743  -1.02754  -1.00341
 Alpha  occ. eigenvalues --   -0.96179  -0.95811  -0.95556  -0.94256  -0.93972
 Alpha  occ. eigenvalues --   -0.89303  -0.89053  -0.84269  -0.77851  -0.77626
 Alpha  occ. eigenvalues --   -0.71862  -0.69442  -0.65623  -0.65257  -0.63841
 Alpha  occ. eigenvalues --   -0.62712  -0.62530  -0.58493  -0.57967  -0.57374
 Alpha  occ. eigenvalues --   -0.55418  -0.54553  -0.53451  -0.52550  -0.51711
 Alpha  occ. eigenvalues --   -0.50807  -0.50525  -0.49725  -0.49245  -0.47802
 Alpha  occ. eigenvalues --   -0.47663  -0.46980  -0.46730  -0.46096  -0.45584
 Alpha  occ. eigenvalues --   -0.45391  -0.45118  -0.44582  -0.41491  -0.41237
 Alpha  occ. eigenvalues --   -0.41234  -0.40888  -0.40724  -0.39487  -0.39264
 Alpha  occ. eigenvalues --   -0.39055  -0.38286  -0.37277  -0.35741  -0.35382
 Alpha  occ. eigenvalues --   -0.32393  -0.32246  -0.31913  -0.31071  -0.31048
 Alpha  occ. eigenvalues --   -0.25895  -0.25659
 Alpha virt. eigenvalues --   -0.07047  -0.01411  -0.00673   0.01881   0.03299
 Alpha virt. eigenvalues --    0.03320   0.03664   0.05241   0.05819   0.06339
 Alpha virt. eigenvalues --    0.07131   0.07959   0.08902   0.09323   0.09919
 Alpha virt. eigenvalues --    0.10822   0.11696   0.11874   0.12387   0.12475
 Alpha virt. eigenvalues --    0.13204   0.13295   0.13551   0.14567   0.18290
 Alpha virt. eigenvalues --    0.20502   0.21523   0.22521   0.23184   0.24345
 Alpha virt. eigenvalues --    0.24945   0.27137   0.29744   0.30193   0.31585
 Alpha virt. eigenvalues --    0.31986   0.34042   0.35146   0.36758   0.37220
 Alpha virt. eigenvalues --    0.38610   0.39161   0.39508   0.39878   0.40740
 Alpha virt. eigenvalues --    0.41367   0.41600   0.42421   0.43621   0.45224
 Alpha virt. eigenvalues --    0.45342   0.45538   0.46254   0.47016   0.47602
 Alpha virt. eigenvalues --    0.47998   0.48703   0.49129   0.49591   0.50119
 Alpha virt. eigenvalues --    0.51228   0.51558   0.52247   0.52918   0.54105
 Alpha virt. eigenvalues --    0.54354   0.54969   0.56063   0.58179   0.58952
 Alpha virt. eigenvalues --    0.60045   0.60202   0.60882   0.61190   0.62958
 Alpha virt. eigenvalues --    0.63805   0.64113   0.64989   0.65631   0.66730
 Alpha virt. eigenvalues --    0.67066   0.67711   0.68304   0.69049   0.69419
 Alpha virt. eigenvalues --    0.70235   0.71188   0.71498   0.71911   0.73102
 Alpha virt. eigenvalues --    0.74162   0.75383   0.75505   0.76840   0.78215
 Alpha virt. eigenvalues --    0.78739   0.79668   0.81318   0.83514   0.84445
 Alpha virt. eigenvalues --    0.84937   0.85408   0.86332   0.87092   0.87896
 Alpha virt. eigenvalues --    0.88619   0.88833   0.89055   0.89113   0.89542
 Alpha virt. eigenvalues --    0.90039   0.90324   0.91243   0.91426   0.91861
 Alpha virt. eigenvalues --    0.92345   0.92507   0.93276   0.93638   0.94140
 Alpha virt. eigenvalues --    0.94714   0.94970   0.95598   0.96039   0.97101
 Alpha virt. eigenvalues --    0.97241   0.97999   0.98623   0.98891   0.99673
 Alpha virt. eigenvalues --    1.00553   1.01989   1.02394   1.03512   1.03705
 Alpha virt. eigenvalues --    1.05615   1.05687   1.05934   1.07379   1.07813
 Alpha virt. eigenvalues --    1.08441   1.09098   1.10074   1.10536   1.10781
 Alpha virt. eigenvalues --    1.12604   1.12738   1.13641   1.14611   1.16291
 Alpha virt. eigenvalues --    1.17791   1.18609   1.19733   1.20704   1.21699
 Alpha virt. eigenvalues --    1.24499   1.28172   1.32427   1.36028   1.36532
 Alpha virt. eigenvalues --    1.37842   1.38821   1.40089   1.41716   1.43705
 Alpha virt. eigenvalues --    1.44519   1.45603   1.46636   1.46901   1.47755
 Alpha virt. eigenvalues --    1.48361   1.48693   1.49200   1.54473   1.56981
 Alpha virt. eigenvalues --    1.60412   1.60973   1.62968   1.64012   1.64350
 Alpha virt. eigenvalues --    1.64783   1.66299   1.66726   1.67357   1.69270
 Alpha virt. eigenvalues --    1.69768   1.73355   1.73760   1.77579   1.78367
 Alpha virt. eigenvalues --    1.90662   1.95242   1.95938   1.96530   2.01427
 Alpha virt. eigenvalues --    2.01755   2.03942   2.05152   2.07368   2.07877
 Alpha virt. eigenvalues --    2.10983   2.11645   2.12437   2.15909   2.16313
 Alpha virt. eigenvalues --    2.18270   2.23406   2.23849   2.26327   2.27850
 Alpha virt. eigenvalues --    2.30430   2.31517   2.33184   2.33265   2.33297
 Alpha virt. eigenvalues --    2.33946   2.35453   2.35997   2.38132   2.38330
 Alpha virt. eigenvalues --    2.40070   2.46967   2.47074   2.60489   2.61386
 Alpha virt. eigenvalues --    2.62858   2.63822   2.64209   2.64896   2.66538
 Alpha virt. eigenvalues --    2.67100   2.68138   2.68312   2.69948   2.70389
 Alpha virt. eigenvalues --    2.71752   2.74475   2.75898   2.81934   2.83565
 Alpha virt. eigenvalues --    2.86247   2.87002   2.88041   2.88647   2.89753
 Alpha virt. eigenvalues --    2.93290   2.93919   2.95692   3.03313   3.03491
 Alpha virt. eigenvalues --    3.16045   3.22076   3.22785   3.55080   3.59363
 Alpha virt. eigenvalues --    3.60179   6.92183
  Beta  occ. eigenvalues -- -101.67584-101.64407-101.61480-101.60859-101.58400
  Beta  occ. eigenvalues -- -101.58220 -14.47072 -14.46450 -14.42372 -14.42290
  Beta  occ. eigenvalues --  -14.37572 -14.37487 -10.37909 -10.37795 -10.36216
  Beta  occ. eigenvalues --  -10.32113 -10.31895 -10.30983 -10.30801 -10.29612
  Beta  occ. eigenvalues --  -10.29432  -9.60794  -9.57592  -9.54654  -9.54042
  Beta  occ. eigenvalues --   -9.51665  -9.51484  -7.37199  -7.36294  -7.36176
  Beta  occ. eigenvalues --   -7.34076  -7.33003  -7.32989  -7.31082  -7.30477
  Beta  occ. eigenvalues --   -7.30107  -7.30075  -7.29489  -7.29460  -7.28111
  Beta  occ. eigenvalues --   -7.27928  -7.27092  -7.27076  -7.26913  -7.26894
  Beta  occ. eigenvalues --   -3.83001  -2.52009  -2.51457  -2.51384  -2.17688
  Beta  occ. eigenvalues --   -1.15408  -1.08743  -1.08547  -1.02672  -1.00320
  Beta  occ. eigenvalues --   -0.96098  -0.95727  -0.95465  -0.94121  -0.93861
  Beta  occ. eigenvalues --   -0.89156  -0.88918  -0.84216  -0.77762  -0.77533
  Beta  occ. eigenvalues --   -0.71715  -0.69335  -0.65334  -0.65010  -0.63574
  Beta  occ. eigenvalues --   -0.62561  -0.62340  -0.57667  -0.57205  -0.56950
  Beta  occ. eigenvalues --   -0.55326  -0.53683  -0.50926  -0.50657  -0.50287
  Beta  occ. eigenvalues --   -0.49504  -0.49121  -0.47571  -0.47181  -0.46916
  Beta  occ. eigenvalues --   -0.46471  -0.45804  -0.45108  -0.44856  -0.44560
  Beta  occ. eigenvalues --   -0.41509  -0.41239  -0.40812  -0.40593  -0.40296
  Beta  occ. eigenvalues --   -0.39559  -0.39291  -0.38723  -0.38367  -0.37451
  Beta  occ. eigenvalues --   -0.35884  -0.35709  -0.32524  -0.32366  -0.31861
  Beta  occ. eigenvalues --   -0.31793  -0.31124  -0.25898  -0.25598
  Beta virt. eigenvalues --   -0.07051  -0.05077  -0.04837  -0.04436  -0.01309
  Beta virt. eigenvalues --   -0.00634   0.02790   0.03339   0.03655   0.03806
  Beta virt. eigenvalues --    0.05374   0.06216   0.06409   0.07616   0.08300
  Beta virt. eigenvalues --    0.09744   0.10211   0.10549   0.11111   0.11914
  Beta virt. eigenvalues --    0.11996   0.12556   0.12743   0.13453   0.13504
  Beta virt. eigenvalues --    0.13697   0.14815   0.18486   0.21387   0.22222
  Beta virt. eigenvalues --    0.22885   0.23659   0.24466   0.25166   0.27245
  Beta virt. eigenvalues --    0.29887   0.30310   0.31730   0.32201   0.34172
  Beta virt. eigenvalues --    0.35264   0.37343   0.37383   0.38834   0.39308
  Beta virt. eigenvalues --    0.39732   0.39912   0.40826   0.41424   0.41648
  Beta virt. eigenvalues --    0.42509   0.44275   0.45367   0.45454   0.45635
  Beta virt. eigenvalues --    0.46440   0.47112   0.47755   0.48053   0.48756
  Beta virt. eigenvalues --    0.49173   0.49671   0.50211   0.51284   0.51595
  Beta virt. eigenvalues --    0.52284   0.52999   0.54178   0.54487   0.55081
  Beta virt. eigenvalues --    0.56127   0.58408   0.59118   0.60099   0.60321
  Beta virt. eigenvalues --    0.61015   0.61345   0.63172   0.63895   0.64234
  Beta virt. eigenvalues --    0.65104   0.65775   0.66874   0.67173   0.67953
  Beta virt. eigenvalues --    0.68365   0.69248   0.69724   0.70467   0.71414
  Beta virt. eigenvalues --    0.71806   0.72108   0.73552   0.74601   0.75602
  Beta virt. eigenvalues --    0.75784   0.77166   0.78589   0.79593   0.80630
  Beta virt. eigenvalues --    0.81891   0.83867   0.84703   0.85503   0.86300
  Beta virt. eigenvalues --    0.86775   0.87512   0.88408   0.88689   0.88857
  Beta virt. eigenvalues --    0.89137   0.89488   0.89598   0.90171   0.90561
  Beta virt. eigenvalues --    0.91350   0.91483   0.91955   0.92496   0.92606
  Beta virt. eigenvalues --    0.93304   0.93789   0.94292   0.94890   0.95322
  Beta virt. eigenvalues --    0.95700   0.96214   0.97351   0.97395   0.98120
  Beta virt. eigenvalues --    0.98755   0.99060   0.99786   1.00821   1.02076
  Beta virt. eigenvalues --    1.02784   1.03865   1.04112   1.05733   1.05841
  Beta virt. eigenvalues --    1.06072   1.07502   1.08169   1.08804   1.09418
  Beta virt. eigenvalues --    1.10231   1.10962   1.11084   1.12828   1.12851
  Beta virt. eigenvalues --    1.13887   1.15033   1.16841   1.17887   1.18988
  Beta virt. eigenvalues --    1.20179   1.21325   1.22284   1.24761   1.28215
  Beta virt. eigenvalues --    1.32456   1.36102   1.36589   1.37907   1.38900
  Beta virt. eigenvalues --    1.40277   1.41883   1.43822   1.44658   1.45739
  Beta virt. eigenvalues --    1.46700   1.47119   1.47904   1.48517   1.48866
  Beta virt. eigenvalues --    1.49346   1.54725   1.57261   1.60453   1.61060
  Beta virt. eigenvalues --    1.63043   1.64160   1.64517   1.64921   1.66368
  Beta virt. eigenvalues --    1.66790   1.67457   1.69370   1.69920   1.73541
  Beta virt. eigenvalues --    1.73954   1.78011   1.78862   1.90738   1.95381
  Beta virt. eigenvalues --    1.96068   1.96656   2.01574   2.01881   2.04009
  Beta virt. eigenvalues --    2.05208   2.07466   2.07976   2.11050   2.11709
  Beta virt. eigenvalues --    2.12521   2.15970   2.16385   2.18360   2.23576
  Beta virt. eigenvalues --    2.24028   2.26381   2.27909   2.30494   2.31606
  Beta virt. eigenvalues --    2.33293   2.33351   2.33379   2.34085   2.35518
  Beta virt. eigenvalues --    2.36060   2.38318   2.38495   2.40157   2.47109
  Beta virt. eigenvalues --    2.47215   2.60557   2.61466   2.62939   2.63898
  Beta virt. eigenvalues --    2.64303   2.64961   2.66673   2.67252   2.68294
  Beta virt. eigenvalues --    2.68473   2.70043   2.70496   2.71846   2.74652
  Beta virt. eigenvalues --    2.76054   2.82009   2.83597   2.86361   2.87121
  Beta virt. eigenvalues --    2.88095   2.88702   2.89834   2.93391   2.94016
  Beta virt. eigenvalues --    2.95751   3.03365   3.03541   3.16094   3.22142
  Beta virt. eigenvalues --    3.22855   3.55120   3.59416   3.60224   6.90908
          Condensed to atoms (all electrons):
               1          2          3          4          5          6
     1  Li   2.115894   0.213217  -0.033770   0.071913  -0.000011   0.000004
     2  N    0.213217   6.690503   0.333457  -0.079756  -0.000000  -0.000000
     3  C   -0.033770   0.333457   5.070212   0.236574  -0.000000  -0.000000
     4  Cl   0.071913  -0.079756   0.236574  16.746567  -0.000000  -0.000000
     5  N   -0.000011  -0.000000  -0.000000  -0.000000   6.565848   0.449874
     6  C    0.000004  -0.000000  -0.000000  -0.000000   0.449874   4.926902
     7  Cl  -0.000002  -0.000000   0.000000  -0.000000  -0.053802   0.265930
     8  N   -0.000006   0.000000  -0.000000   0.000000   0.000000  -0.000000
     9  C   -0.000009  -0.000000   0.000000  -0.000000  -0.000000  -0.000000
    10  Cl  -0.000001  -0.000000  -0.000000  -0.000000  -0.000000  -0.000000
    11  N    0.003390  -0.076249  -0.078271   0.003664   0.000000   0.000011
    12  C    0.006282  -0.061347   0.564172  -0.057003   0.000000   0.000000
    13  Cl   0.000011   0.003082  -0.071654   0.006373   0.000000  -0.000000
    14  N    0.000001   0.000001  -0.000001   0.000000   0.000007   0.000004
    15  C   -0.000154   0.000003   0.000001  -0.000000   0.000001  -0.000000
    16  Cl   0.002424  -0.000203   0.000005  -0.000003   0.000008  -0.000000
    17  N   -0.000044   0.000014   0.000000   0.000000  -0.093353  -0.075881
    18  C    0.000044  -0.000000  -0.000000  -0.000000  -0.064909   0.574967
    19  Cl  -0.000084  -0.000001   0.000003   0.000000   0.004392  -0.056853
    20  C   -0.010325   0.511469  -0.093435   0.006021   0.000000   0.000001
    21  H   -0.000371  -0.034100   0.004679  -0.000141   0.000002  -0.000027
    22  C   -0.000011   0.000000  -0.000001  -0.000000   0.000002   0.000000
    23  H   -0.000000   0.000000  -0.000000   0.000000  -0.000000   0.000000
    24  C   -0.000115   0.000001   0.000000   0.000000   0.579595  -0.107576
    25  H   -0.000007   0.000000   0.000000   0.000000  -0.035345   0.005531
    26  Co   0.000753   0.003397   0.000652  -0.000092   0.008976  -0.001016
               7          8          9         10         11         12
     1  Li  -0.000002  -0.000006  -0.000009  -0.000001   0.003390   0.006282
     2  N   -0.000000   0.000000  -0.000000  -0.000000  -0.076249  -0.061347
     3  C    0.000000  -0.000000   0.000000  -0.000000  -0.078271   0.564172
     4  Cl  -0.000000   0.000000  -0.000000  -0.000000   0.003664  -0.057003
     5  N   -0.053802   0.000000  -0.000000  -0.000000   0.000000   0.000000
     6  C    0.265930  -0.000000  -0.000000  -0.000000   0.000011   0.000000
     7  Cl  16.856886  -0.000000  -0.000000  -0.000000   0.000000  -0.000000
     8  N   -0.000000   6.560192   0.453301  -0.053591   0.000001  -0.000000
     9  C   -0.000000   0.453301   4.911987   0.267667  -0.000005   0.000003
    10  Cl  -0.000000  -0.053591   0.267667  16.854125   0.000000  -0.000000
    11  N    0.000000   0.000001  -0.000005   0.000000   6.793198   0.408833
    12  C   -0.000000  -0.000000   0.000003  -0.000000   0.408833   4.904149
    13  Cl  -0.000000   0.000002  -0.000009  -0.000000  -0.057212   0.286415
    14  N    0.000000  -0.091081  -0.075053   0.003893  -0.008676  -0.001176
    15  C    0.000000  -0.068904   0.576334  -0.079949  -0.000826   0.000319
    16  Cl   0.000000   0.004534  -0.056193   0.007167  -0.002946   0.000153
    17  N    0.003982   0.000002   0.000015   0.000000  -0.009000   0.000098
    18  C   -0.078517   0.000000   0.000000  -0.000000  -0.000565  -0.000010
    19  Cl   0.007230   0.000000  -0.000000  -0.000000  -0.000749  -0.000037
    20  C   -0.000000   0.000000  -0.000002  -0.000000   0.454262  -0.096196
    21  H    0.000000  -0.000000  -0.000000  -0.000000  -0.035996   0.003941
    22  C   -0.000000   0.581215  -0.106791   0.005330   0.000145  -0.000052
    23  H   -0.000000  -0.036134   0.005813  -0.000127  -0.000008   0.000000
    24  C    0.005297   0.000002  -0.000007  -0.000000   0.000205  -0.000001
    25  H   -0.000126  -0.000002  -0.000009  -0.000001  -0.000006  -0.000000
    26  Co  -0.000299   0.009100  -0.000796  -0.000217   0.140176  -0.018207
              13         14         15         16         17         18
     1  Li   0.000011   0.000001  -0.000154   0.002424  -0.000044   0.000044
     2  N    0.003082   0.000001   0.000003  -0.000203   0.000014  -0.000000
     3  C   -0.071654  -0.000001   0.000001   0.000005   0.000000  -0.000000
     4  Cl   0.006373   0.000000  -0.000000  -0.000003   0.000000  -0.000000
     5  N    0.000000   0.000007   0.000001   0.000008  -0.093353  -0.064909
     6  C   -0.000000   0.000004  -0.000000  -0.000000  -0.075881   0.574967
     7  Cl  -0.000000   0.000000   0.000000   0.000000   0.003982  -0.078517
     8  N    0.000002  -0.091081  -0.068904   0.004534   0.000002   0.000000
     9  C   -0.000009  -0.075053   0.576334  -0.056193   0.000015   0.000000
    10  Cl  -0.000000   0.003893  -0.079949   0.007167   0.000000  -0.000000
    11  N   -0.057212  -0.008676  -0.000826  -0.002946  -0.009000  -0.000565
    12  C    0.286415  -0.001176   0.000319   0.000153   0.000098  -0.000010
    13  Cl  16.747806  -0.000361   0.000034  -0.000049   0.000007  -0.000001
    14  N   -0.000361   6.949006   0.365459  -0.065778  -0.011827   0.000113
    15  C    0.000034   0.365459   5.036892   0.230091   0.000236   0.000006
    16  Cl  -0.000049  -0.065778   0.230091  16.864475  -0.000374  -0.000001
    17  N    0.000007  -0.011827   0.000236  -0.000374   6.964784   0.376905
    18  C   -0.000001   0.000113   0.000006  -0.000001   0.376905   5.027978
    19  Cl  -0.000037   0.000005   0.000002   0.000001  -0.064812   0.234955
    20  C    0.004850   0.000286  -0.000233   0.001385  -0.000788   0.000201
    21  H   -0.000097   0.000008   0.000003  -0.000263   0.001178   0.000047
    22  C    0.000055   0.390779  -0.099727   0.006595  -0.000330  -0.000015
    23  H   -0.000028  -0.053624   0.004397  -0.000099  -0.000054   0.000004
    24  C    0.000000  -0.000506  -0.000065  -0.000273   0.372689  -0.100891
    25  H    0.000000   0.000001   0.000636   0.000476  -0.053093   0.004668
    26  Co   0.010808   0.178320  -0.022765   0.020880   0.178399  -0.018059
              19         20         21         22         23         24
     1  Li  -0.000084  -0.010325  -0.000371  -0.000011  -0.000000  -0.000115
     2  N   -0.000001   0.511469  -0.034100   0.000000   0.000000   0.000001
     3  C    0.000003  -0.093435   0.004679  -0.000001  -0.000000   0.000000
     4  Cl   0.000000   0.006021  -0.000141  -0.000000   0.000000   0.000000
     5  N    0.004392   0.000000   0.000002   0.000002  -0.000000   0.579595
     6  C   -0.056853   0.000001  -0.000027   0.000000   0.000000  -0.107576
     7  Cl   0.007230  -0.000000   0.000000  -0.000000  -0.000000   0.005297
     8  N    0.000000   0.000000  -0.000000   0.581215  -0.036134   0.000002
     9  C   -0.000000  -0.000002  -0.000000  -0.106791   0.005813  -0.000007
    10  Cl  -0.000000  -0.000000  -0.000000   0.005330  -0.000127  -0.000000
    11  N   -0.000749   0.454262  -0.035996   0.000145  -0.000008   0.000205
    12  C   -0.000037  -0.096196   0.003941  -0.000052   0.000000  -0.000001
    13  Cl  -0.000037   0.004850  -0.000097   0.000055  -0.000028   0.000000
    14  N    0.000005   0.000286   0.000008   0.390779  -0.053624  -0.000506
    15  C    0.000002  -0.000233   0.000003  -0.099727   0.004397  -0.000065
    16  Cl   0.000001   0.001385  -0.000263   0.006595  -0.000099  -0.000273
    17  N   -0.064812  -0.000788   0.001178  -0.000330  -0.000054   0.372689
    18  C    0.234955   0.000201   0.000047  -0.000015   0.000004  -0.100891
    19  Cl  16.844530  -0.000070  -0.000077  -0.000003  -0.000008   0.006206
    20  C   -0.000070   4.591953   0.392079   0.000001   0.000000  -0.000170
    21  H   -0.000077   0.392079   0.506399   0.000000   0.000000   0.000247
    22  C   -0.000003   0.000001   0.000000   4.648552   0.392562   0.000001
    23  H   -0.000008   0.000000   0.000000   0.392562   0.569981  -0.000016
    24  C    0.006206  -0.000170   0.000247   0.000001  -0.000016   4.666430
    25  H   -0.000090  -0.000010   0.000005  -0.000069  -0.000000   0.392810
    26  Co   0.023661  -0.017806   0.001198  -0.007570   0.001871  -0.010793
              25         26
     1  Li  -0.000007   0.000753
     2  N    0.000000   0.003397
     3  C    0.000000   0.000652
     4  Cl   0.000000  -0.000092
     5  N   -0.035345   0.008976
     6  C    0.005531  -0.001016
     7  Cl  -0.000126  -0.000299
     8  N   -0.000002   0.009100
     9  C   -0.000009  -0.000796
    10  Cl  -0.000001  -0.000217
    11  N   -0.000006   0.140176
    12  C   -0.000000  -0.018207
    13  Cl   0.000000   0.010808
    14  N    0.000001   0.178320
    15  C    0.000636  -0.022765
    16  Cl   0.000476   0.020880
    17  N   -0.053093   0.178399
    18  C    0.004668  -0.018059
    19  Cl  -0.000090   0.023661
    20  C   -0.000010  -0.017806
    21  H    0.000005   0.001198
    22  C   -0.000069  -0.007570
    23  H   -0.000000   0.001871
    24  C    0.392810  -0.010793
    25  H    0.558136   0.001613
    26  Co   0.001613  15.652934
          Atomic-Atomic Spin Densities.
               1          2          3          4          5          6
     1  Li   0.000279   0.000135   0.000255  -0.000040  -0.000000   0.000000
     2  N    0.000135   0.004432   0.000973  -0.000100   0.000000   0.000000
     3  C    0.000255   0.000973   0.004722  -0.001143  -0.000000  -0.000000
     4  Cl  -0.000040  -0.000100  -0.001143   0.002649   0.000000  -0.000000
     5  N   -0.000000   0.000000  -0.000000   0.000000   0.009815   0.002497
     6  C    0.000000   0.000000  -0.000000  -0.000000   0.002497   0.022605
     7  Cl   0.000000  -0.000000  -0.000000   0.000000  -0.000126  -0.002395
     8  N   -0.000000   0.000000   0.000000  -0.000000   0.000000   0.000000
     9  C   -0.000000   0.000000   0.000000  -0.000000   0.000000  -0.000000
    10  Cl   0.000000  -0.000000  -0.000000   0.000000  -0.000000  -0.000000
    11  N    0.000250  -0.002034  -0.000328   0.000188  -0.000000   0.000002
    12  C   -0.000082   0.000429  -0.000189  -0.000240   0.000000  -0.000000
    13  Cl  -0.000011  -0.000012  -0.000020  -0.000017  -0.000000   0.000000
    14  N   -0.000051  -0.000001   0.000001   0.000000  -0.000002   0.000002
    15  C    0.000008  -0.000000  -0.000002   0.000000  -0.000000   0.000000
    16  Cl   0.000006  -0.000002  -0.000002  -0.000000  -0.000000   0.000000
    17  N   -0.000041  -0.000003   0.000000   0.000000  -0.003264   0.000551
    18  C   -0.000005  -0.000000  -0.000000   0.000000   0.000678  -0.001966
    19  Cl   0.000002  -0.000000  -0.000000  -0.000000   0.000000   0.000111
    20  C   -0.000225  -0.000267  -0.000323  -0.000055  -0.000000  -0.000001
    21  H    0.000021  -0.000266   0.000017   0.000002  -0.000001  -0.000004
    22  C   -0.000000  -0.000000  -0.000000   0.000000  -0.000000  -0.000000
    23  H    0.000000  -0.000000   0.000000   0.000000   0.000000   0.000000
    24  C    0.000002  -0.000000   0.000000   0.000000  -0.001430  -0.002341
    25  H    0.000000   0.000000   0.000000  -0.000000  -0.000059  -0.000016
    26  Co  -0.000041   0.000038   0.000046   0.000054   0.000352   0.000073
               7          8          9         10         11         12
     1  Li   0.000000  -0.000000  -0.000000   0.000000   0.000250  -0.000082
     2  N   -0.000000   0.000000   0.000000  -0.000000  -0.002034   0.000429
     3  C   -0.000000   0.000000   0.000000  -0.000000  -0.000328  -0.000189
     4  Cl   0.000000  -0.000000  -0.000000   0.000000   0.000188  -0.000240
     5  N   -0.000126   0.000000   0.000000  -0.000000  -0.000000   0.000000
     6  C   -0.002395   0.000000  -0.000000  -0.000000   0.000002  -0.000000
     7  Cl   0.005257  -0.000000  -0.000000   0.000000   0.000000   0.000000
     8  N   -0.000000   0.014485   0.003810  -0.000134  -0.000001  -0.000000
     9  C   -0.000000   0.003810   0.027888  -0.002862   0.000000  -0.000001
    10  Cl   0.000000  -0.000134  -0.002862   0.005322   0.000000   0.000000
    11  N    0.000000  -0.000001   0.000000   0.000000   0.099485   0.001202
    12  C    0.000000  -0.000000  -0.000001   0.000000   0.001202   0.000864
    13  Cl  -0.000000   0.000000  -0.000000  -0.000000  -0.000289   0.000486
    14  N    0.000000  -0.003820  -0.000323   0.000208  -0.003441  -0.000065
    15  C    0.000000   0.000277  -0.002602  -0.000031   0.000048   0.000018
    16  Cl  -0.000000  -0.000016   0.000006  -0.000112   0.000077   0.000007
    17  N    0.000248  -0.000001   0.000002   0.000000  -0.002998   0.000029
    18  C   -0.000276   0.000000   0.000000  -0.000000  -0.000056  -0.000001
    19  Cl  -0.000154   0.000000  -0.000000   0.000000  -0.000005   0.000001
    20  C    0.000000  -0.000000  -0.000000   0.000000   0.001209  -0.000274
    21  H    0.000000   0.000000   0.000000  -0.000000  -0.000393  -0.000027
    22  C    0.000000  -0.002947  -0.002673  -0.000044  -0.000016   0.000004
    23  H    0.000000  -0.000029  -0.000022  -0.000001  -0.000001  -0.000000
    24  C   -0.000089  -0.000001  -0.000002   0.000000  -0.000002   0.000000
    25  H   -0.000000  -0.000000  -0.000002   0.000000   0.000001  -0.000000
    26  Co   0.000022   0.000477   0.000182  -0.000001  -0.045363  -0.000706
              13         14         15         16         17         18
     1  Li  -0.000011  -0.000051   0.000008   0.000006  -0.000041  -0.000005
     2  N   -0.000012  -0.000001  -0.000000  -0.000002  -0.000003  -0.000000
     3  C   -0.000020   0.000001  -0.000002  -0.000002   0.000000  -0.000000
     4  Cl  -0.000017   0.000000   0.000000  -0.000000   0.000000   0.000000
     5  N   -0.000000  -0.000002  -0.000000  -0.000000  -0.003264   0.000678
     6  C    0.000000   0.000002   0.000000   0.000000   0.000551  -0.001966
     7  Cl  -0.000000   0.000000   0.000000  -0.000000   0.000248  -0.000276
     8  N    0.000000  -0.003820   0.000277  -0.000016  -0.000001   0.000000
     9  C   -0.000000  -0.000323  -0.002602   0.000006   0.000002   0.000000
    10  Cl  -0.000000   0.000208  -0.000031  -0.000112   0.000000  -0.000000
    11  N   -0.000289  -0.003441   0.000048   0.000077  -0.002998  -0.000056
    12  C    0.000486  -0.000065   0.000018   0.000007   0.000029  -0.000001
    13  Cl   0.000973   0.000041   0.000000   0.000001  -0.000001   0.000000
    14  N    0.000041   0.148942   0.002361  -0.000629  -0.004145   0.000046
    15  C    0.000000   0.002361  -0.016207   0.002073  -0.000006  -0.000000
    16  Cl   0.000001  -0.000629   0.002073   0.003912   0.000010   0.000000
    17  N   -0.000001  -0.004145  -0.000006   0.000010   0.142591   0.000269
    18  C    0.000000   0.000046  -0.000000   0.000000   0.000269  -0.009124
    19  Cl   0.000001   0.000002   0.000000   0.000000  -0.000536   0.001906
    20  C   -0.000008  -0.000030   0.000015  -0.000005  -0.000037   0.000026
    21  H    0.000002   0.000010  -0.000001   0.000011   0.000226   0.000013
    22  C    0.000003   0.004435   0.000829  -0.000025  -0.000018  -0.000001
    23  H    0.000001   0.000296  -0.000013   0.000000  -0.000001  -0.000000
    24  C    0.000000   0.000085   0.000009  -0.000012   0.001825   0.000617
    25  H   -0.000000   0.000066  -0.000008   0.000002   0.000092  -0.000014
    26  Co  -0.000276  -0.056287  -0.000545  -0.001979  -0.052038  -0.001037
              19         20         21         22         23         24
     1  Li   0.000002  -0.000225   0.000021  -0.000000   0.000000   0.000002
     2  N   -0.000000  -0.000267  -0.000266  -0.000000  -0.000000  -0.000000
     3  C   -0.000000  -0.000323   0.000017  -0.000000   0.000000   0.000000
     4  Cl  -0.000000  -0.000055   0.000002   0.000000   0.000000   0.000000
     5  N    0.000000  -0.000000  -0.000001  -0.000000   0.000000  -0.001430
     6  C    0.000111  -0.000001  -0.000004  -0.000000   0.000000  -0.002341
     7  Cl  -0.000154   0.000000   0.000000   0.000000   0.000000  -0.000089
     8  N    0.000000  -0.000000   0.000000  -0.002947  -0.000029  -0.000001
     9  C   -0.000000  -0.000000   0.000000  -0.002673  -0.000022  -0.000002
    10  Cl   0.000000   0.000000  -0.000000  -0.000044  -0.000001   0.000000
    11  N   -0.000005   0.001209  -0.000393  -0.000016  -0.000001  -0.000002
    12  C    0.000001  -0.000274  -0.000027   0.000004  -0.000000   0.000000
    13  Cl   0.000001  -0.000008   0.000002   0.000003   0.000001   0.000000
    14  N    0.000002  -0.000030   0.000010   0.004435   0.000296   0.000085
    15  C    0.000000   0.000015  -0.000001   0.000829  -0.000013   0.000009
    16  Cl   0.000000  -0.000005   0.000011  -0.000025   0.000000  -0.000012
    17  N   -0.000536  -0.000037   0.000226  -0.000018  -0.000001   0.001825
    18  C    0.001906   0.000026   0.000013  -0.000001  -0.000000   0.000617
    19  Cl   0.002103   0.000001  -0.000000  -0.000000   0.000000   0.000014
    20  C    0.000001   0.008061   0.000175   0.000000  -0.000000   0.000002
    21  H   -0.000000   0.000175   0.000744   0.000000   0.000000   0.000022
    22  C   -0.000000   0.000000   0.000000   0.019207   0.000511   0.000018
    23  H    0.000000  -0.000000   0.000000   0.000511  -0.001363  -0.000001
    24  C    0.000014   0.000002   0.000022   0.000018  -0.000001   0.014246
    25  H    0.000001  -0.000001   0.000000   0.000002  -0.000000   0.000435
    26  Co  -0.001267  -0.001554  -0.000010  -0.002025  -0.000047  -0.001707
              25         26
     1  Li   0.000000  -0.000041
     2  N    0.000000   0.000038
     3  C    0.000000   0.000046
     4  Cl  -0.000000   0.000054
     5  N   -0.000059   0.000352
     6  C   -0.000016   0.000073
     7  Cl  -0.000000   0.000022
     8  N   -0.000000   0.000477
     9  C   -0.000002   0.000182
    10  Cl   0.000000  -0.000001
    11  N    0.000001  -0.045363
    12  C   -0.000000  -0.000706
    13  Cl  -0.000000  -0.000276
    14  N    0.000066  -0.056287
    15  C   -0.000008  -0.000545
    16  Cl   0.000002  -0.001979
    17  N    0.000092  -0.052038
    18  C   -0.000014  -0.001037
    19  Cl   0.000001  -0.001267
    20  C   -0.000001  -0.001554
    21  H    0.000000  -0.000010
    22  C    0.000002  -0.002025
    23  H   -0.000000  -0.000047
    24  C    0.000435  -0.001707
    25  H   -0.000750   0.000098
    26  Co   0.000098   2.848044
 Mulliken charges and spin densities:
               1          2
     1  Li   0.630975   0.000462
     2  N   -0.503487   0.003322
     3  C    0.067376   0.004007
     4  Cl   0.065883   0.001298
     5  N   -0.361283   0.008461
     6  C    0.018130   0.019116
     7  Cl  -0.006579   0.002486
     8  N   -0.358632   0.012099
     9  C    0.023755   0.023402
    10  Cl  -0.004297   0.002345
    11  N   -0.533377   0.047535
    12  C    0.059664   0.001454
    13  Cl   0.070003   0.000875
    14  N   -0.579800   0.087701
    15  C    0.058209  -0.013778
    16  Cl  -0.012010   0.003324
    17  N   -0.588754   0.082756
    18  C    0.043080  -0.008925
    19  Cl   0.001837   0.002179
    20  C    0.256527   0.006707
    21  H    0.161285   0.000542
    22  C    0.189330   0.017260
    23  H    0.115471  -0.000668
    24  C    0.196929   0.011691
    25  H    0.124884  -0.000154
    26  Co   0.864882   2.684505
 Sum of Mulliken charges =  -0.00000   3.00000
 Mulliken charges and spin densities with hydrogens summed into heavy atoms:
               1          2
     1  Li   0.630975   0.000462
     2  N   -0.503487   0.003322
     3  C    0.067376   0.004007
     4  Cl   0.065883   0.001298
     5  N   -0.361283   0.008461
     6  C    0.018130   0.019116
     7  Cl  -0.006579   0.002486
     8  N   -0.358632   0.012099
     9  C    0.023755   0.023402
    10  Cl  -0.004297   0.002345
    11  N   -0.533377   0.047535
    12  C    0.059664   0.001454
    13  Cl   0.070003   0.000875
    14  N   -0.579800   0.087701
    15  C    0.058209  -0.013778
    16  Cl  -0.012010   0.003324
    17  N   -0.588754   0.082756
    18  C    0.043080  -0.008925
    19  Cl   0.001837   0.002179
    20  C    0.417812   0.007249
    22  C    0.304800   0.016591
    24  C    0.321813   0.011537
    26  Co   0.864882   2.684505
 Electronic spatial extent (au):  <R**2>=          13243.7913
 Charge=             -0.0000 electrons
 Dipole moment (field-independent basis, Debye):
    X=             -0.4396    Y=            -17.6838    Z=             -6.4638  Tot=             18.8332
 Quadrupole moment (field-independent basis, Debye-Ang):
   XX=           -219.9470   YY=           -126.4167   ZZ=           -143.0422
   XY=              8.3370   XZ=             17.6049   YZ=             58.0070
 Traceless Quadrupole moment (field-independent basis, Debye-Ang):
   XX=            -56.8117   YY=             36.7186   ZZ=             20.0931
   XY=              8.3370   XZ=             17.6049   YZ=             58.0070
 Octapole moment (field-independent basis, Debye-Ang**2):
  XXX=            239.7033  YYY=           -257.2883  ZZZ=            293.3432  XYY=              9.1566
  XXY=            -40.3964  XXZ=            160.9213  XZZ=             22.9944  YZZ=           -183.3574
  YYZ=           -109.2279  XYZ=              3.7483
 Hexadecapole moment (field-independent basis, Debye-Ang**3):
 XXXX=          -8784.4074 YYYY=          -4836.4110 ZZZZ=          -1770.5002 XXXY=           -466.6833
 XXXZ=            388.2084 YYYX=           -297.2506 YYYZ=           1550.0878 ZZZX=            411.9049
 ZZZY=            878.2272 XXYY=          -2644.5611 XXZZ=          -1851.1249 YYZZ=           -518.0769
 XXYZ=             63.8440 YYXZ=            381.4791 ZZXY=           -103.3228
 N-N= 2.917959967155D+03 E-N=-1.432999211491D+04  KE= 3.519438057110D+03
  Exact polarizability: 240.190   6.900 206.307 -11.591   0.286 186.016
 Approx polarizability: 254.320   2.777 229.156  -6.562  -1.695 249.433
                          Isotropic Fermi Contact Couplings
        Atom                 a.u.       MegaHertz       Gauss      10(-4) cm-1
     1  Li(7)              0.00012       0.06734       0.02403       0.02246
     2  N(14)              0.00163       0.17574       0.06271       0.05862
     3  C(13)              0.00399       1.49398       0.53309       0.49834
     4  Cl(35)             0.00080       0.11628       0.04149       0.03879
     5  N(14)              0.00087       0.09323       0.03327       0.03110
     6  C(13)              0.00586       2.19481       0.78316       0.73211
     7  Cl(35)             0.00076       0.11079       0.03953       0.03696
     8  N(14)              0.00140       0.15043       0.05368       0.05018
[...]
 0.00088809,-0.00014530,0.,0.,0.,-0.00203003,-0.01531404,0.02638373,-0.
 00355487,0.00037354,0.00323159,0.,0.,0.,0.00040795,0.00013070,0.000794
 59,-0.00062483,0.00018669,-0.00021642,-0.00346913,-0.00493877,0.001860
 39,0.00070013,0.00029248,-0.00239104,-0.00014984,-0.00011253,0.0004102
 8,0.00224226,0.00086848,0.00180300,0.00085143,0.00015857,0.00100577,-0
 .00030476,0.00008268,-0.00031239,0.08638123,0.36573008,0.,0.,0.,0.,0.,
 0.,-0.00008832,-0.00016402,0.00008408,0.00006247,0.00027332,0.00011565
 ,0.,0.,0.,-0.00930184,0.01642320,-0.00413640,0.00111793,0.00333963,0.0
 0160461,0.,0.,0.,-0.00015753,0.00000798,-0.00021736,0.00069967,-0.0002
 2442,0.00023228,0.00122278,-0.00027324,0.00188694,-0.00045445,-0.00068
 623,0.00037149,0.00001598,0.00012901,0.00011757,0.00210126,0.00042127,
 0.00108661,-0.00043610,-0.00085877,-0.00207304,0.00011685,0.00016086,0
 .00079229,0.00090844,-0.23695999,0.32509264,0.,0.,0.,0.,0.,0.,-0.00003
 090,-0.00001216,0.00006929,0.00017242,0.00053751,0.00005827,0.,0.,0.,-
 0.13842074,-0.08499961,0.06814452,-0.02008998,-0.01987330,0.01519590,0
 .,0.,0.,-0.00031460,-0.00041920,-0.00104035,0.00067919,-0.00021288,0.0
 0027391,0.00051766,0.00309296,-0.00002032,-0.00045384,-0.00036004,0.00
 145762,0.00009312,0.00007622,-0.00037399,0.00295204,-0.00184952,-0.002
 18136,-0.00113975,-0.00006893,-0.00165408,0.00019670,0.00017658,0.0005
 6856,-0.30272037,-0.00165855,-0.04099961,0.57484567,0.,0.,0.,0.,0.,0.,
 -0.00006650,-0.00002080,0.00000326,-0.00002879,-0.00001514,0.00001547,
 0.,0.,0.,-0.11431186,-0.22609826,0.13402880,0.00012419,-0.00036438,0.0
 0170567,0.,0.,0.,0.00012632,0.00016019,0.00034355,-0.00014380,0.000044
 20,-0.00004860,0.00070503,-0.00045156,0.00018118,-0.00001061,-0.000194
 13,-0.00017800,0.00000990,0.00001130,0.00012413,-0.00114315,0.00044217
 ,0.00081478,0.00054322,-0.00019599,0.00024503,-0.00017487,-0.00004353,
 -0.00000397,-0.02033284,-0.07855826,0.01096748,0.04911157,0.43300059,0
 .,0.,0.,0.,0.,0.,0.00002922,0.00004821,0.00015182,0.00007003,0.0001493
 8,-0.00000378,0.,0.,0.,0.09555712,0.14022288,-0.18167436,-0.00394952,-
 0.00174375,0.00252330,0.,0.,0.,-0.00018895,-0.00023383,-0.00055126,0.0
 0029017,-0.00007909,0.00010408,-0.00088058,0.00136444,-0.00075934,-0.0
 0014883,-0.00006800,0.00051522,0.00000523,0.00002205,-0.00019387,0.001
 81110,-0.00007997,-0.00143454,-0.00080891,0.00000719,-0.00055710,0.000
 10641,0.00010107,0.00010852,-0.02273549,0.01577011,-0.08348551,0.03786
 526,-0.30742373,0.40556126,0.,0.,0.,0.,0.,0.,0.00004101,-0.00000922,-0
 .00011108,-0.00004053,-0.00014629,-0.00000684,0.,0.,0.,0.00351038,-0.0
 0355875,0.00409275,0.00174504,-0.00023942,0.00078119,0.,0.,0.,0.000107
 82,0.00005668,0.00019562,-0.00014325,0.00004055,-0.00004950,-0.0005133
 0,-0.00076537,-0.00041777,0.00014825,0.00028530,-0.00040213,-0.0000343
 5,-0.00002485,0.00010349,-0.00057717,0.00020756,0.00021562,0.00024299,
 -0.00000764,0.00025001,-0.00004923,-0.00003225,-0.00003097,-0.00974428
 ,0.02511506,-0.02550692,-0.06424497,0.03895003,-0.04700090,0.07358741,
 0.,0.,0.,0.,0.,0.,0.00007183,0.00004221,-0.00004320,0.00000438,-0.0000
 2433,-0.00000472,0.,0.,0.,0.01855981,-0.00690955,0.00988314,-0.0004689
 6,-0.00027214,-0.00105414,0.,0.,0.,-0.00008614,-0.00001133,-0.00004893
 ,0.00006567,-0.00001466,0.00001494,-0.00064560,0.00023452,-0.00043105,
 0.00008279,0.00017658,0.00003126,-0.00002176,0.00000529,-0.00003281,0.
 00021423,0.00001904,-0.00037275,-0.00015152,0.00003050,-0.00005447,0.0
 0006430,0.00003393,-0.00002172,0.00476096,-0.00250526,0.00070265,0.035
 10410,-0.09475292,0.08454495,-0.06042441,0.11108693,0.,0.,0.,0.,0.,0.,
 -0.00004103,-0.00003208,0.00002513,-0.00002159,-0.00005424,0.00000993,
 0.,0.,0.,-0.01711187,0.00569365,-0.00903054,0.00096431,-0.00103172,-0.
 00012372,0.,0.,0.,0.00008942,0.00002124,0.00007954,-0.00006098,0.00001
 661,-0.00001177,0.00012445,-0.00040830,0.00028848,0.00003454,-0.000076
 09,-0.00030960,-0.00000255,0.00001025,0.00013724,-0.00021791,0.0000764
 2,0.00048695,0.00017984,-0.00008017,-0.00000026,-0.00008899,-0.0000056
 5,0.00006362,-0.00583711,0.00425792,-0.00758429,-0.04320252,0.08561908
 ,-0.10353610,0.07044243,-0.10855219,0.12693289,0.,0.,0.,0.,0.,0.,-0.00
 471454,-0.03058821,0.03472132,0.00170942,-0.00281641,0.00132803,0.,0.,
 0.,-0.00001694,-0.00013889,0.00009609,0.00002017,0.00000867,0.00000040
 ,0.,0.,0.,-0.00005320,0.00002469,0.00008928,0.00004795,-0.00002949,0.0
 0000515,-0.09010516,0.00477836,0.04756466,-0.00103368,-0.02209632,0.02
 736827,0.00166418,-0.00219283,0.00163911,0.00048941,0.00008955,0.00072
 393,-0.00006713,-0.00001274,-0.00007036,-0.00041853,0.00030576,-0.0001
 0270,-0.00010752,0.00010848,0.00078457,-0.00002614,0.00004112,-0.00012
 808,-0.00009265,-0.00005889,0.00003379,0.28432883,0.,0.,0.,0.,0.,0.,-0
 .04472205,-0.05651770,0.06675277,-0.00236137,-0.00553762,-0.00214125,0
 .,0.,0.,-0.00046606,-0.00000242,-0.00014250,0.00042012,0.00014013,-0.0
 0005061,0.,0.,0.,0.00024919,0.00012173,0.00048627,-0.00030168,0.000068
 05,-0.00010390,0.01047426,-0.13006165,-0.08583681,-0.00740469,0.002883
 38,0.00889202,-0.00178902,-0.00403826,-0.00208323,-0.00092539,0.000777
 09,0.00128847,0.00084210,-0.00032073,0.00029841,-0.00013726,-0.0000933
 6,-0.00028900,0.00151036,0.00147508,0.00081158,-0.00090833,-0.00003030
 ,-0.00045197,0.00027088,0.00008932,0.00009999,0.21401256,0.72680427,0.
 ,0.,0.,0.,0.,0.,0.01734733,0.01846380,-0.02085692,0.00205456,-0.000526
 09,-0.00416172,0.,0.,0.,-0.00059100,0.00042412,-0.00038019,0.00053932,
 0.00017152,-0.00007800,0.,0.,0.,0.00034920,0.00032137,0.00106256,-0.00
 066113,0.00017450,-0.00023596,0.05355263,-0.06862239,-0.34095559,0.044
 63764,0.05922377,-0.06826521,0.00210913,-0.00056716,-0.00594995,-0.002
 47888,0.00289999,0.00162814,0.00164131,-0.00032111,0.00116710,-0.00105
 593,0.00056593,-0.00076347,0.00217173,0.00156682,-0.00179653,-0.001107
 91,-0.00022538,-0.00016292,0.00049345,0.00029685,-0.00003263,-0.199194
 73,-0.06144407,0.75819319,0.,0.,0.,0.,0.,0.,0.00483815,-0.00240291,-0.
 00010701,0.00084118,-0.00046047,0.00047762,0.,0.,0.,-0.00006290,-0.000
 03645,0.00001830,-0.00002709,0.00001193,0.00001110,0.,0.,0.,-0.0001524
 1,0.00008138,0.00000303,0.00001866,-0.00001243,-0.00000314,-0.00257123
 ,-0.00069942,0.00017374,0.00460209,-0.00023917,0.00134067,0.00086253,-
 0.00035253,0.00028953,-0.00009187,0.00015651,0.00010559,0.00021464,0.0
 0014528,0.00053259,0.00012730,-0.00019879,-0.00031028,-0.00022835,0.00
 011351,0.00019075,-0.00008238,-0.00014276,-0.00000619,-0.00005086,0.00
 006515,-0.00002513,-0.08579324,-0.07946569,0.09468492,0.08263201,0.,0.
 ,0.,0.,0.,0.,-0.00206151,-0.00337913,-0.00377989,-0.00088669,-0.000645
 62,0.00083994,0.,0.,0.,-0.00009638,-0.00008082,-0.00000199,0.00010075,
 0.00001390,-0.00001580,0.,0.,0.,0.00002365,0.00000139,0.00001699,-0.00
 002262,0.00000421,-0.00000486,0.00739745,0.01097484,-0.00980586,-0.000
 72654,0.00062901,-0.00291228,0.00004080,0.00064302,-0.00070798,-0.0000
 6267,-0.00007773,0.00003169,0.00002224,-0.00002144,-0.00001672,-0.0000
 4207,-0.00001723,0.00001049,0.00002372,0.00028679,0.00038271,-0.000207
 41,0.00018454,-0.00017655,0.00006216,-0.00011468,0.00008513,-0.0798386
 2,-0.15911449,0.12211304,0.08572003,0.16448630,0.,0.,0.,0.,0.,0.,0.000
 44386,-0.00218417,0.00157989,-0.00003115,-0.00058850,0.00054193,0.,0.,
 0.,-0.00011496,0.00004111,-0.00009461,0.00011951,0.00003042,-0.0000222
 7,0.,0.,0.,0.00003918,0.00001133,0.00003345,-0.00002813,0.00000859,-0.
 00000820,0.01080651,0.01762973,-0.01775382,0.00081723,-0.00435650,-0.0
 0282646,0.00072911,0.00071324,-0.00059926,-0.00011168,-0.00001613,0.00
 006595,0.00001999,-0.00001450,-0.00002328,-0.00006191,0.00000593,0.000
 05288,0.00022592,0.00071475,0.00030239,-0.00048256,-0.00004968,-0.0000
 3796,0.00001514,0.00001582,0.00002588,0.09341802,0.12088847,-0.2079376
 9,-0.10091827,-0.12787971,0.21740032,0.,0.,0.,0.,0.,0.,0.00007846,0.00
 017716,-0.00006370,-0.00008481,-0.00023937,-0.00005139,0.,0.,0.,-0.000
 27796,0.00010961,-0.00010230,0.00031405,0.00012199,-0.00004750,0.,0.,0
 .,-0.05522846,-0.01477493,-0.08993398,-0.00240495,0.00169842,-0.001924
 43,-0.00021459,-0.00066330,-0.00044646,0.00018147,0.00048728,0.0001622
 5,0.00002294,-0.00036387,-0.00012319,-0.10510371,0.03722377,0.05362747
 ,-0.01335691,0.00712471,-0.01699931,-0.00475658,0.00329804,0.00108958,
 0.00156640,0.00002268,-0.00061881,-0.00076614,0.00009413,-0.00027178,0
 .00017208,0.00004723,-0.00007248,-0.00008718,0.00013299,0.00062108,0.0
 0005892,0.00000043,0.00000206,0.72302186,0.,0.,0.,0.,0.,0.,-0.00009958
 ,-0.00011631,0.00011690,0.00013868,0.00041634,0.00007857,0.,0.,0.,0.00
 049872,-0.00034522,0.00035354,-0.00057902,-0.00020099,0.00005159,0.,0.
 ,0.,0.01089844,0.01561355,0.01837775,0.00198348,0.00153902,-0.00250838
 ,0.00056485,0.00187197,-0.00015355,-0.00041150,-0.00066463,0.00056984,
 0.00001158,0.00034977,-0.00004128,0.02532012,-0.13725398,-0.10470717,-
 0.00946327,0.00318874,-0.03802532,0.00317555,-0.00111613,-0.00472997,-
 0.00264711,-0.00075377,0.00150292,0.00134307,-0.00040601,0.00079642,-0
 .00026421,0.00013633,-0.00014468,-0.00004453,-0.00049377,-0.00121853,-
 0.00009393,-0.00004474,-0.00004337,-0.14840596,0.29898112,0.,0.,0.,0.,
 0.,0.,-0.00016203,-0.00014976,0.00040219,0.00020477,0.00057573,0.00008
 364,0.,0.,0.,0.00081799,-0.00082188,0.00088506,-0.00084802,-0.00024916
 ,0.00007427,0.,0.,0.,-0.03800577,-0.00547904,-0.03470296,-0.00139937,-
 0.00264434,-0.00313559,-0.00073771,0.00287022,0.00085638,-0.00068168,-
 0.00139438,0.00089050,0.00001731,0.00048965,-0.00018753,0.02683352,-0.
 09211855,-0.23614910,-0.05068886,-0.02433016,-0.07472207,-0.00026494,-
 0.00378825,-0.00656031,-0.00432758,-0.00228944,0.00158310,0.00230971,-
 0.00066722,0.00103025,-0.00039164,0.00023350,-0.00033053,0.00000820,-0
 .00084266,-0.00199212,-0.00016022,-0.00002259,-0.00005092,0.21793400,0
 .17470366,0.69425816,0.,0.,0.,0.,0.,0.,-0.00000507,-0.00001780,-0.0000
 0391,-0.00000394,-0.00000921,0.00000358,0.,0.,0.,-0.00004739,0.0000235
 6,-0.00002105,0.00003110,0.00000847,-0.00000365,0.,0.,0.,-0.00262679,0
 .00407023,-0.00104395,-0.00054126,0.00002228,-0.00116496,0.00002216,-0
 .00005162,-0.00000185,0.00004376,0.00004639,-0.00014906,-0.00001802,-0
 .00000215,0.00006410,0.01020987,0.00025408,0.01234142,-0.00034203,0.00
 236531,0.00150541,0.00077791,0.00048037,0.00038747,0.00007636,0.000011
 61,-0.00011318,-0.00008430,-0.00000395,0.00000058,0.00001636,-0.000007
 00,-0.00000835,0.00000022,0.00002400,0.00006176,0.00000233,0.00000506,
 0.00000299,-0.15482945,-0.01487022,-0.14335190,0.16498622,0.,0.,0.,0.,
 0.,0.,-0.00002434,-0.00004582,0.00000840,-0.00000276,0.00000639,0.0000
 1056,0.,0.,0.,0.00000680,-0.00001364,0.00003578,-0.00000837,-0.0000078
 0,-0.00000071,0.,0.,0.,0.00426598,0.00497726,-0.00158596,0.00058414,0.
 00066145,0.00026498,0.00003785,-0.00010824,0.00005508,0.00009015,0.000
 04513,-0.00026914,-0.00003055,0.00002094,0.00013135,-0.01238883,-0.003
 62289,-0.01263353,0.00338260,0.00059463,-0.00257999,-0.00017472,0.0009
 4971,-0.00115794,-0.00008363,-0.00008991,0.00000165,0.00001036,0.00006
 705,-0.00002939,-0.00000693,-0.00003432,0.00003469,-0.00000787,0.00003
 246,0.00004081,-0.00000867,0.00000254,0.00000474,-0.01428222,-0.042721
 00,-0.04216524,0.01302266,0.03977350,0.,0.,0.,0.,0.,0.,-0.00000830,-0.
 00000155,0.00000450,-0.00000155,0.00000108,0.00000052,0.,0.,0.,0.00008
 180,-0.00003410,0.00001718,-0.00003491,-0.00000931,0.00000143,0.,0.,0.
 ,-0.00071089,-0.00184833,0.00340331,-0.00004240,-0.00025036,0.00027829
 ,0.00003995,-0.00000475,0.00004085,0.00002265,0.00001127,-0.00004892,0
 .00000214,-0.00000537,0.00002940,-0.01348070,-0.00090562,-0.01695043,0
 .00348425,-0.00352750,-0.00067567,-0.00086298,-0.00060331,-0.00055007,
 -0.00001355,0.00002826,0.00025592,0.00010972,0.00003042,-0.00000762,-0
 .00001758,0.00001009,0.00000957,-0.00001756,0.00000570,0.00000612,-0.0
 0001538,0.00000086,0.00000163,-0.14136728,-0.04306565,-0.24068964,0.15
 392491,0.04658460,0.25338896,0.,0.,0.,0.,0.,0.,0.00002168,-0.00000218,
 -0.00001978,-0.00000931,-0.00005751,-0.00000777,0.,0.,0.,-0.10445232,0
 .02800371,-0.04730274,-0.00417434,0.00013136,-0.00146740,0.,0.,0.,-0.0
 0037478,0.00011051,0.00002179,0.00003001,-0.00001592,0.00001236,-0.000
 41441,-0.00029274,-0.00061020,0.00008765,0.00013575,-0.00014390,-0.000
 02742,0.00000889,0.00003890,-0.00024967,0.00034335,-0.00185772,-0.0004
 5767,0.00055728,0.00060910,0.00012200,0.00005855,-0.00043094,-0.101062
 00,0.01377771,-0.01580959,-0.05528345,0.01134901,-0.02481361,-0.004642
 11,-0.00107616,-0.00031678,-0.00003511,-0.00010535,0.00028636,0.000124
 65,0.00000328,-0.00008285,0.00020925,-0.00014441,0.00010717,0.00001163
 ,0.00001148,-0.00002208,0.90038687,0.,0.,0.,0.,0.,0.,-0.00005473,-0.00
 011151,0.00005578,0.00016091,0.00047390,0.00007009,0.,0.,0.,-0.0169091
 2,0.01877108,-0.00950644,-0.00034369,-0.00010648,0.00353178,0.,0.,0.,-
 0.00034177,-0.00039232,-0.00101448,0.00070516,-0.00022894,0.00029509,0
 .00009770,0.00226229,0.00049702,-0.00042115,-0.00045914,0.00100286,0.0
 0006758,0.00010497,-0.00020344,0.00313683,-0.00192158,-0.00238042,-0.0
 0115489,-0.00007450,-0.00188495,0.00009416,0.00013475,0.00071947,0.036
 96529,-0.18851893,0.11435492,0.03961864,-0.01085785,0.03437423,-0.0000
 9975,-0.00384775,0.00589997,0.00010047,-0.00060557,-0.00095525,0.00001
 063,-0.00019788,-0.00041095,-0.00074402,0.00141894,0.00230537,-0.00009
 887,0.00004059,0.00013405,0.01762131,0.41241508,0.,0.,0.,0.,0.,0.,0.00
 006911,0.00008437,-0.00017378,-0.00018386,-0.00055777,-0.00007174,0.,0
 .,0.,-0.00448096,-0.00055154,0.01100150,-0.00110708,0.00346272,0.00003
 803,0.,0.,0.,0.00025840,0.00047891,0.00117145,-0.00067685,0.00021800,-
 0.00028767,-0.00044869,-0.00280792,0.00060358,0.00052040,0.00048025,-0
 .00126091,-0.00008663,-0.00009860,0.00027326,-0.00308479,0.00206838,0.
 00223813,0.00116039,0.00002240,0.00175493,-0.00015250,-0.00015347,-0.0
 0063361,-0.03820236,0.10731747,-0.18459109,-0.05313337,0.02962616,-0.0
 1808822,-0.00110981,0.00579190,-0.00353411,0.00008026,0.00104777,0.001
 16141,0.00000359,0.00021442,0.00043188,0.00078664,-0.00148750,-0.00226
 773,0.00006914,-0.00002809,-0.00009681,0.10913569,-0.24766189,0.397488
 73,0.,0.,0.,0.,0.,0.,-0.00000596,0.00001201,0.00002973,-0.00000158,-0.
 00000138,0.00000482,0.,0.,0.,-0.00198530,-0.00301171,0.00132358,-0.000
 83521,0.00022367,-0.00049591,0.,0.,0.,-0.00004384,0.00009094,0.0000820
 3,0.00000438,-0.00000096,-0.00000572,0.00002664,0.00004276,0.00001982,
 -0.00002164,-0.00004141,0.00000952,-0.00000230,0.00000160,0.00001333,-
 0.00001921,-0.00001478,0.00013381,0.00004228,-0.00001241,0.00003058,-0
 .00007021,-0.00000745,-0.00005974,0.00356562,-0.00026728,0.00135797,0.
 00167637,-0.00040466,0.00023582,0.00029028,-0.00012085,-0.00004458,0.0
 0003498,0.00001376,-0.00011078,-0.00001639,0.00004553,-0.00001178,0.00
 007653,-0.00011251,-0.00007385,-0.00000054,0.00000714,-0.00000759,-0.2
 9558209,0.06230061,-0.10097513,0.31524941,0.,0.,0.,0.,0.,0.,0.00000928
 ,-0.00004067,-0.00004181,0.00001400,0.00002539,-0.00000386,0.,0.,0.,-0
 .00335159,0.00291924,0.00375245,-0.00077010,0.00062104,0.00003819,0.,0
 .,0.,-0.00012852,0.00007561,-0.00001604,0.00005908,-0.00002475,0.00000
 937,-0.00012124,-0.00007758,0.00004764,0.00000366,0.00003351,0.0000284
 3,0.00000590,-0.00000095,-0.00003825,-0.00001754,-0.00005615,-0.000110
 22,-0.00018511,0.00018113,0.00049627,0.00026942,0.00000861,-0.00028738
 ,0.02209568,-0.00518789,0.00563746,-0.00199939,-0.00132145,0.00407496,
 0.00095786,0.00048442,0.00109725,-0.00003819,-0.00003079,0.00009351,0.
 00006245,-0.00007007,0.00001288,0.00005562,0.00004885,-0.00005811,0.00
 001638,0.00001314,-0.00004243,0.06122787,-0.06147737,0.04107580,-0.064
 11318,0.06088858,0.,0.,0.,0.,0.,0.,-0.00000054,-0.00000859,-0.00001234
 ,-0.00000027,0.00000171,-0.00000803,0.,0.,0.,0.00149629,0.00340922,0.0
 0475763,0.00043288,0.00025681,0.00066639,0.,0.,0.,0.00017432,-0.000026
 66,0.00001347,-0.00009261,0.00002125,-0.00003823,0.00002078,-0.0000710
 7,-0.00003669,0.00001082,0.00002308,0.00001887,0.00001022,-0.00000868,
 -0.00002484,-0.00025763,-0.00034422,0.00030468,0.00030258,0.00005750,0
 .00030920,0.00001562,-0.00001140,-0.00010565,-0.02039257,0.00297337,-0
 .00894706,0.00212137,0.00464604,-0.00074728,-0.00116062,0.00084507,0.0
 0041700,-0.00003606,-0.00001757,0.00008527,-0.00000940,-0.00001537,0.0
 0000915,0.00003295,-0.00012175,-0.00021844,0.00000556,0.00003149,-0.00
 002138,-0.09795389,0.04080315,-0.08190471,0.10658531,-0.04585199,0.082
 34594,0.,0.,0.,0.,0.,0.,-0.00013813,-0.00076810,0.00157702,0.00007769,
 -0.00039581,-0.00000580,0.,0.,0.,-0.00551844,0.00370647,-0.00431867,0.
 00287332,0.00079589,-0.00032548,0.,0.,0.,-0.00188971,-0.00335377,-0.00
 881235,0.00342926,-0.00085621,0.00132044,-0.00782388,-0.00141312,0.001
 08424,0.00055296,-0.00391235,-0.00294890,-0.00062370,0.00028130,0.0006
 3290,-0.09800526,0.04026782,0.01885302,-0.02092050,0.00609393,-0.00749
 814,0.00072867,0.00089144,0.00288757,-0.07406563,-0.04704825,0.0312643
 3,-0.01803569,-0.00735560,0.00367866,0.00250231,0.00010816,0.00011683,
 0.00059563,0.00102607,-0.00186165,0.00011179,0.00069896,0.00064997,-0.
 00897120,0.00980715,0.01515137,0.00016022,-0.00021466,-0.00061855,0.00
 286404,-0.01086489,0.01216232,-0.00013675,0.00076543,-0.00108159,0.200
 09340,0.,0.,0.,0.,0.,0.,-0.00139794,-0.00061281,0.00324100,0.00092289,
 0.00312976,0.00035464,0.,0.,0.,-0.00141235,0.00207764,-0.00131653,0.00
 239920,0.00088243,-0.00000646,0.,0.,0.,0.00021992,0.00244808,0.0036877
 5,-0.00182151,0.00060892,-0.00084030,-0.00445096,-0.08012073,-0.015444
 38,-0.00494409,-0.01364523,0.00741159,0.00096263,0.00062877,-0.0022723
 5,0.03984614,-0.02536944,-0.01371241,0.00679316,0.00087237,0.00669905,
 0.00032586,-0.00195269,-0.00188094,-0.04776100,-0.04177982,0.02646507,
 -0.00842939,0.00198672,-0.00522133,0.00051589,-0.00257262,0.00172468,0
 .00143097,-0.01003806,-0.01667235,0.00010777,0.00079470,0.00036621,0.0
 0873416,-0.00822977,-0.00458902,-0.00005269,-0.00004657,-0.00032275,-0
 .00658386,-0.00972061,0.00841045,0.00037193,-0.00050154,0.00040199,0.0
 1022307,0.16911436,0.,0.,0.,0.,0.,0.,0.00065246,0.00103010,-0.00025927
 ,0.00038092,0.00094037,0.00004339,0.,0.,0.,0.00125825,-0.00260855,0.00
 317919,-0.00215769,-0.00045354,0.00022185,0.,0.,0.,-0.00130012,0.00005
 859,-0.00027096,-0.00175789,0.00046278,-0.00052707,-0.00022185,-0.0141
 3771,-0.01897461,-0.00066646,0.00372385,0.00805310,0.00002066,-0.00092
 431,-0.00214925,0.02611945,-0.01386880,-0.02036493,-0.00420393,0.00598
 908,0.01015060,0.00223723,-0.00127295,-0.00255868,0.02865373,0.0251111
 6,-0.02907361,0.00640543,-0.00329712,0.00603346,0.00038349,0.00175264,
 -0.00270795,-0.00294177,-0.01195992,-0.00257154,0.00025086,-0.00067702
 ,-0.00125978,0.00897228,-0.00441930,-0.00268191,-0.00002358,-0.0004322
 8,-0.00103910,0.00864240,0.00824279,-0.00981916,-0.00039257,0.00042772
 ,-0.00032738,-0.06229291,0.00525095,0.07233577\\0.,0.,0.,0.,0.,0.,0.00
 000005,0.00000044,0.00000036,0.00000002,-0.00000002,-0.00000005,0.,0.,
 0.,-0.00000045,0.00000044,-0.00000044,0.00000010,0.00000003,0.,0.,0.,0
 .,-0.00000081,0.00000059,0.00000046,0.00000009,-0.00000003,0.00000002,
 -0.00000021,-0.00000024,0.00000048,0.00000004,-0.00000010,-0.00000023,
 -0.00000003,0.00000002,0.00000009,0.00000034,-0.00000023,-0.00000001,0
 .00000070,-0.00000042,-0.00000031,-0.00000004,0.00000009,0.00000015,-0
 .00000072,-0.00000068,0.00000055,0.00000042,-0.00000033,0.00000029,-0.
 00000012,0.00000008,-0.00000008,0.00000005,-0.00000034,-0.00000057,0.,
 -0.00000002,0.00000001,-0.00000048,0.00000023,-0.00000027,0.00000014,-
 0.00000006,0.00000008,0.00000099,0.00000059,-0.00000029,-0.00000032,0.
 00000001,-0.00000010,0.00000004,0.00000023,-0.00000001\\\@


 PICNIC:  A SNACK IN THE GRASS.
 Job cpu time:       0 days 11 hours 13 minutes 24.6 seconds.
 Elapsed time:       0 days  0 hours 10 minutes 32.7 seconds.
 File lengths (MBytes):  RWF=    856 Int=      0 D2E=      0 Chk=     15 Scr=      1
 Normal termination of Gaussian 16 at Fri Oct  4 12:28:22 2019.
