 Entering Gaussian System, Link 0=g16
 Input=Co_PC_opt_freq4.com
 Output=Co_PC_opt_freq4.log
 Initial command:
 /apps/commercial/G16/g16.linda/l1.exe "/scratch/x1711a05/Gau-13585.inp" -scrdir="/scratch/x1711a05/"
 Default linda workers: node7864
 Entering Link 1 = /apps/commercial/G16/g16.linda/l1.exe PID=     13586.
  
 Copyright (c) 1988,1990,1992,1993,1995,1998,2003,2009,2016,
            Gaussian, Inc.  All Rights Reserved.
  
 This is part of the Gaussian(R) 16 program.  It is based on
 the Gaussian(R) 09 system (copyright 2009, Gaussian, Inc.),
 the Gaussian(R) 03 system (copyright 2003, Gaussian, Inc.),
 the Gaussian(R) 98 system (copyright 1998, Gaussian, Inc.),
 the Gaussian(R) 94 system (copyright 1995, Gaussian, Inc.),
 the Gaussian 92(TM) system (copyright 1992, Gaussian, Inc.),
 the Gaussian 90(TM) system (copyright 1990, Gaussian, Inc.),
 the Gaussian 88(TM) system (copyright 1988, Gaussian, Inc.),
 the Gaussian 86(TM) system (copyright 1986, Carnegie Mellon
 University), and the Gaussian 82(TM) system (copyright 1983,
 Carnegie Mellon University). Gaussian is a federally registered
 trademark of Gaussian, Inc.
  
 This software contains proprietary and confidential information,
 including trade secrets, belonging to Gaussian, Inc.
  
 This software is provided under written license and may be
 used, copied, transmitted, or stored only in accord with that
 written license.
  
 The following legend is applicable only to US Government
 contracts under FAR:
  
                    RESTRICTED RIGHTS LEGEND
  
 Use, reproduction and disclosure by the US Government is
 subject to restrictions as set forth in subparagraphs (a)
 and (c) of the Commercial Computer Software - Restricted
 Rights clause in FAR 52.227-19.
  
 Gaussian, Inc.
 340 Quinnipiac St., Bldg. 40, Wallingford CT 06492
  
  
 ---------------------------------------------------------------
 Warning -- This program may not be used in any manner that
 competes with the business of Gaussian, Inc. or will provide
 assistance to any competitor of Gaussian, Inc.  The licensee
 of this program is prohibited from giving any competitor of
 Gaussian, Inc. access to this program.  By using this program,
 the user acknowledges that Gaussian, Inc. is engaged in the
 business of creating and licensing software in the field of
 computational chemistry and represents and warrants to the
 licensee that it is not a competitor of Gaussian, Inc. and that
 it will not use this program in any manner prohibited above.
 ---------------------------------------------------------------
  

 Cite this work as:
 Gaussian 16, Revision A.03,
 M. J. Frisch, G. W. Trucks, H. B. Schlegel, G. E. Scuseria, 
 M. A. Robb, J. R. Cheeseman, G. Scalmani, V. Barone, 
 G. A. Petersson, H. Nakatsuji, X. Li, M. Caricato, A. V. Marenich, 
 J. Bloino, B. G. Janesko, R. Gomperts, B. Mennucci, H. P. Hratchian, 
 J. V. Ortiz, A. F. Izmaylov, J. L. Sonnenberg, D. Williams-Young, 
 F. Ding, F. Lipparini, F. Egidi, J. Goings, B. Peng, A. Petrone, 
 T. Henderson, D. Ranasinghe, V. G. Zakrzewski, J. Gao, N. Rega, 
 G. Zheng, W. Liang, M. Hada, M. Ehara, K. Toyota, R. Fukuda, 
 J. Hasegawa, M. Ishida, T. Nakajima, Y. Honda, O. Kitao, H. Nakai, 
 T. Vreven, K. Throssell, J. A. Montgomery, Jr., J. E. Peralta, 
 F. Ogliaro, M. J. Bearpark, J. J. Heyd, E. N. Brothers, K. N. Kudin, 
 V. N. Staroverov, T. A. Keith, R. Kobayashi, J. Normand, 
 K. Raghavachari, A. P. Rendell, J. C. Burant, S. S. Iyengar, 
 J. Tomasi, M. Cossi, J. M. Millam, M. Klene, C. Adamo, R. Cammi, 
 J. W. Ochterski, R. L. Martin, K. Morokuma, O. Farkas, 
 J. B. Foresman, and D. J. Fox, Gaussian, Inc., Wallingford CT, 2016.
 
 ******************************************
 Gaussian 16:  ES64L-G16RevA.03 25-Dec-2016
                21-Jan-2020 
 ******************************************
 %nprocshared=64
 Will use up to   64 processors via shared memory.
 %mem=64GB
 %chk=Co_PC_opt_freq4.chk
 SetLPE:    new flags="-opt 'Tsnet.Node.lindarsharg: ssh'  -nodelist 'node7864' -env GAUSS_MDEF=8589934592 -env GAUSS_EXEDIR="/apps/commercial/G16/g16.linda""
 Will use up to    1 processors via Linda.
 ----------------------------------------------------------------------
 # opt=(calcall,tight,cartesian) freq cam-b3lyp/gen nosymm scf=(qc,maxc
 ycle=1024,vshift=100) pseudo=read
 ----------------------------------------------------------------------
 1/7=10,10=4,18=10,26=3,38=1/1,3;
 2/12=2,15=1,17=6,18=5,29=2,40=1/2;
 3/5=7,11=2,16=1,17=8,25=1,30=1,71=2,74=-40,140=1/1,2,3;
 4//1;
 5/5=2,7=1024,8=3,10=100,38=5/8;
 8/6=4,10=90,11=11/1;
 11/6=1,8=1,9=11,15=111,16=1,31=1/1,2,10;
 10/6=1,31=1/2;
 6/7=2,8=2,9=2,10=2,18=1,28=1/1;
 7/7=1,10=1,25=1,30=1/1,2,3,16;
 1/7=10,10=4,18=10,26=3/3(3);
 2/15=1,29=1/2;
 7/7=1,8=1,9=1,25=1,30=1,44=-1/16;
 99/12=1/99;
 2/15=1,29=1/2;
 3/5=7,6=1,11=2,16=1,17=8,25=1,30=1,71=2,74=-40,82=7,140=1/1,2,3;
 4/5=5,16=3,69=1/1;
 5/5=2,7=1024,8=3,10=100,38=5/8;
 8/6=4,10=90,11=11/1;
 11/6=1,8=1,9=11,15=111,16=1,31=1/1,2,10;
 10/6=1,31=1/2;
 7/7=1,10=1,25=1,30=1/1,2,3,16;
 1/7=10,10=4,18=10,26=3/3(-8);
 2/15=1,29=1/2;
 6/7=2,8=2,9=2,10=2,18=1,19=2,28=1/1;
 7/7=1,8=1,9=1,25=1,30=1,44=-1/16;
 99/12=1/99;
 ---------------
 Co_PC_opt_freq4
 ---------------
 Symbolic Z-matrix:
 Charge =  0 Multiplicity = 4
 Li                   -1   -0.65876  -5.04605  -3.46452 
 N                    -1   -0.32836  -3.61409  -2.2819 
 C                    0    -1.04828  -3.96575  -1.17583 
 Cl                   0    -1.8254   -5.51944  -1.16258 
 N                    -1    2.25851   2.61269  -2.48314 
 C                    0     3.20782   1.6794   -2.23458 
 Cl                   0     4.86037   1.88497  -2.69683 
 N                    -1   -3.37906   2.02857   1.06405 
 C                    0    -3.75388   1.72723  -0.20334 
 Cl                   0    -5.29122   2.17314  -0.84904 
 N                    0    -0.27088  -1.94769  -0.79663 
 C                    0    -1.02262  -2.95555  -0.26092 
 Cl                   0    -1.7539   -2.85998   1.28001 
 N                    0    -1.71316   0.90801   0.03785 
 C                    0    -2.75166   1.04454  -0.8397 
 Cl                   0    -2.67372   0.4199   -2.44592 
 N                    0     1.3259    0.86508  -1.39954 
 C                    0     2.65836   0.61271  -1.57155 
 Cl                   0     3.40565  -0.8313   -0.98757 
 C                    0     0.11667  -2.38644  -1.99788 
 H                    0     0.72808  -1.79458  -2.66348 
 C                    0    -2.16376   1.52429   1.16251 
 H                    0    -1.56206   1.5803    2.05986 
 C                    0     1.15668   2.08497  -1.97186 
 H                    0     0.19013   2.57081  -1.99257 
 Co                   0    -0.0062   -0.01965  -0.21658 
 C                    0     2.51315   3.07474   1.99347 
 C                    0     3.02057   2.26171   3.19436 
 O                    0     1.44814   2.21684   1.50392 
 C                    0     3.52924   3.29578   0.896 
 H                    0     2.60357   2.58999   4.14883 
 H                    0     4.10773   2.21817   3.25537 
 H                    0     3.0483    3.68876  -0.00181 
 H                    0     4.02601   2.3593    0.62882 
 H                    0     4.28574   4.00924   1.23425 
 H                    0     2.03716   4.00692   2.29925 
 C                    0     1.60164   0.99745   1.98844 
 O                    0     2.5341    0.93292   2.92661 
 O                    0     0.9537    0.03125   1.62341 
 

 GradGradGradGradGradGradGradGradGradGradGradGradGradGradGradGradGradGrad
 Berny optimization.
 Initialization pass.
 No Z-matrix variables, so optimization will use Cartesian coordinates.
 Trust Radius=3.00D-01 FncErr=1.00D-07 GrdErr=1.00D-06 EigMax=2.50D+02 EigMin=1.00D-04
 Number of steps in this run=    127 maximum allowed number of steps=    234.
 GradGradGradGradGradGradGradGradGradGradGradGradGradGradGradGradGradGrad

 ---------------------------------------------------------------------------------------------------
                            Z-MATRIX (ANGSTROMS AND DEGREES)
   CD    Cent   Atom    N1       Length/X        N2       Alpha/Y        N3        Beta/Z          J
 ---------------------------------------------------------------------------------------------------
      1      1  Li      -1  -0.658759         -5.046055         -3.464522
      2      2  N       -1  -0.328360         -3.614087         -2.281904
      3      3  C        0  -1.048275         -3.965752         -1.175826
      4      4  Cl       0  -1.825399         -5.519444         -1.162579
      5      5  N       -1   2.258511          2.612686         -2.483143
      6      6  C        0   3.207824          1.679402         -2.234577
      7      7  Cl       0   4.860373          1.884965         -2.696832
      8      8  N       -1  -3.379063          2.028570          1.064048
      9      9  C        0  -3.753882          1.727231         -0.203340
     10     10  Cl       0  -5.291221          2.173138         -0.849038
     11     11  N        0  -0.270882         -1.947687         -0.796630
     12     12  C        0  -1.022617         -2.955554         -0.260923
     13     13  Cl       0  -1.753902         -2.859978          1.280011
     14     14  N        0  -1.713156          0.908012          0.037851
     15     15  C        0  -2.751660          1.044541         -0.839697
     16     16  Cl       0  -2.673720          0.419897         -2.445923
     17     17  N        0   1.325904          0.865076         -1.399544
     18     18  C        0   2.658364          0.612708         -1.571551
     19     19  Cl       0   3.405647         -0.831295         -0.987565
     20     20  C        0   0.116666         -2.386444         -1.997876
     21     21  H        0   0.728077         -1.794575         -2.663480
     22     22  C        0  -2.163763          1.524286          1.162508
     23     23  H        0  -1.562056          1.580299          2.059861
     24     24  C        0   1.156678          2.084969         -1.971858
     25     25  H        0   0.190125          2.570806         -1.992573
     26     26  Co       0  -0.006196         -0.019649         -0.216582
     27     27  C        0   2.513149          3.074742          1.993468
     28     28  C        0   3.020566          2.261713          3.194365
     29     29  O        0   1.448142          2.216837          1.503917
     30     30  C        0   3.529236          3.295776          0.896000
     31     31  H        0   2.603568          2.589985          4.148834
     32     32  H        0   4.107730          2.218169          3.255375
     33     33  H        0   3.048303          3.688757         -0.001810
     34     34  H        0   4.026012          2.359304          0.628823
     35     35  H        0   4.285742          4.009243          1.234251
     36     36  H        0   2.037158          4.006916          2.299253
     37     37  C        0   1.601644          0.997453          1.988440
     38     38  O        0   2.534100          0.932915          2.926609
     39     39  O        0   0.953699          0.031247          1.623414
 ---------------------------------------------------------------------------------------------------
                         Z-Matrix orientation:                         
 ---------------------------------------------------------------------
 Center     Atomic      Atomic             Coordinates (Angstroms)
 Number     Number       Type             X           Y           Z
 ---------------------------------------------------------------------
      1          3           0       -0.658759   -5.046055   -3.464522
      2          7           0       -0.328360   -3.614087   -2.281904
      3          6           0       -1.048275   -3.965752   -1.175826
      4         17           0       -1.825399   -5.519444   -1.162579
      5          7           0        2.258511    2.612686   -2.483143
      6          6           0        3.207824    1.679402   -2.234577
      7         17           0        4.860373    1.884965   -2.696832
      8          7           0       -3.379063    2.028570    1.064048
      9          6           0       -3.753882    1.727231   -0.203340
     10         17           0       -5.291221    2.173138   -0.849038
     11          7           0       -0.270882   -1.947687   -0.796630
     12          6           0       -1.022617   -2.955554   -0.260923
     13         17           0       -1.753902   -2.859978    1.280011
     14          7           0       -1.713156    0.908012    0.037851
     15          6           0       -2.751660    1.044541   -0.839697
     16         17           0       -2.673720    0.419897   -2.445923
     17          7           0        1.325904    0.865076   -1.399544
     18          6           0        2.658364    0.612708   -1.571551
     19         17           0        3.405647   -0.831295   -0.987565
     20          6           0        0.116666   -2.386444   -1.997876
     21          1           0        0.728077   -1.794575   -2.663480
     22          6           0       -2.163763    1.524286    1.162508
     23          1           0       -1.562056    1.580299    2.059861
     24          6           0        1.156678    2.084969   -1.971858
     25          1           0        0.190125    2.570806   -1.992573
     26         27           0       -0.006196   -0.019649   -0.216582
     27          6           0        2.513149    3.074742    1.993468
     28          6           0        3.020566    2.261713    3.194365
     29          8           0        1.448142    2.216837    1.503917
     30          6           0        3.529236    3.295776    0.896000
     31          1           0        2.603568    2.589985    4.148834
     32          1           0        4.107730    2.218169    3.255375
     33          1           0        3.048303    3.688757   -0.001810
     34          1           0        4.026012    2.359304    0.628823
     35          1           0        4.285742    4.009243    1.234251
     36          1           0        2.037158    4.006916    2.299253
     37          6           0        1.601644    0.997453    1.988440
     38          8           0        2.534100    0.932915    2.926609
     39          8           0        0.953699    0.031247    1.623414
 ---------------------------------------------------------------------
                    Distance matrix (angstroms):
                    1          2          3          4          5
     1  Li   0.000000
     2  N    1.886341   0.000000
     3  C    2.560646   1.365780   0.000000
     4  Cl   2.623754   2.669157   1.737255   0.000000
     5  N    8.254083   6.745747   7.477951   9.195311   0.000000
     6  C    7.854617   6.366150   7.148643   8.849062   1.354252
     7  Cl   8.893211   7.571967   8.453193  10.093500   2.710153
     8  N    8.829401   7.234761   6.810397   8.021487   6.686254
     9  C    8.129729   6.677148   6.377781   7.559992   6.490794
    10  Cl   8.967564   7.757259   7.469629   8.443107   7.737051
    11  N    4.107065   2.232987   2.195613   3.912530   5.480799
    12  C    3.842608   2.236073   1.363160   2.833897   6.834425
    13  Cl   5.337496   3.909999   2.784202   3.611664   7.759564
    14  N    6.987795   5.267666   5.066424   6.539558   5.003545
    15  C    6.954517   5.445655   5.302597   6.636875   5.501073
    16  Cl   5.913903   4.669116   4.846559   6.135340   5.397834
    17  N    6.568447   4.855723   5.387363   7.123830   2.257894
    18  C    6.827023   5.224071   5.904072   7.607541   2.234009
    19  Cl   6.357587   4.833431   5.449558   7.026608   3.926026
    20  C    3.134624   1.336349   2.127691   3.779554   5.460246
    21  H    3.624514   2.138290   3.175303   4.758949   4.668908
    22  C    8.175807   6.452562   6.070637   7.425271   5.833686
    23  H    8.674291   6.881466   6.441453   7.801270   6.025068
    24  C    7.508353   5.897517   6.488968   8.208216   1.324362
    25  H    7.804089   6.213328   6.702783   8.378745   2.126178
    26  Co   6.019943   4.158044   4.192589   5.869596   4.146732
    27  C   10.285815   8.431691   8.502748  10.131321   4.507592
    28  C   10.549013   8.702290   8.627593  10.149519   5.739164
    29  O    9.048426   7.175519   7.185926   8.813417   4.087792
    30  C   10.302407   8.527973   8.830394  10.517508   3.674229
    31  H   11.265659   9.404313   9.201394  10.657847   6.640986
    32  H   10.983869   9.184528   9.190256  10.704718   6.042007
    33  H   10.100971   8.362548   8.760809  10.482906   2.817572
    34  H    9.671706   7.944450   8.307315   9.976112   3.587840
    35  H   11.336886   9.579585   9.892459  11.570943   4.458593
    36  H   11.065503   9.201215   9.228191  10.846896   4.986400
    37  C    8.447970   6.574728   6.455080   8.008963   4.799532
    38  O    9.316061   7.483149   7.325321   8.795432   5.671243
    39  O    7.366553   5.493964   5.274433   6.804066   5.022964
                    6          7          8          9         10
     6  C    0.000000
     7  Cl   1.728252   0.000000
     8  N    7.374953   9.058319   0.000000
     9  C    7.252142   8.969268   1.355569   0.000000
    10  Cl   8.625385  10.322415   2.708717   1.726027   0.000000
    11  N    5.227319   6.680551   5.378990   5.097873   6.495210
    12  C    6.578355   7.998365   5.670086   5.421402   6.698533
    13  Cl   7.587953   9.059713   5.156131   5.219458   6.509818
    14  N    5.474944   7.186391   2.254768   2.212206   3.897392
    15  C    6.153388   7.880248   2.232978   1.369476   2.779063
    16  Cl   6.018603   7.679319   3.924950   2.811592   3.532026
    17  N    2.214053   3.900718   5.436885   5.289465   6.767601
    18  C    1.370892   2.780960   6.738069   6.650644   8.133441
    19  Cl   2.810298   3.523619   7.643313   7.643292   9.202245
    20  C    5.112963   6.421544   6.409980   5.926536   7.166230
    21  H    4.289711   5.533172   6.736431   6.208330   7.434171
    22  C    6.357531   8.022660   1.319451   2.105993   3.774695
    23  H    6.419017   7.997909   2.119930   3.154008   4.766532
    24  C    2.107298   3.779278   5.458283   5.231561   6.545525
    25  H    3.155895   4.772586   4.730333   4.412274   5.613463
    26  Co   4.158005   5.784694   4.148668   4.134842   5.756718
    27  C    4.506208   5.378099   6.056109   6.776240   8.354695
    28  C    5.463292   6.183286   6.748915   7.597580   9.243525
    29  O    4.166732   5.422154   4.850859   5.496862   7.138440
    30  C    3.537864   4.082984   7.025571   7.530783   9.061233
    31  H    6.476282   7.242470   6.754477   7.752608   9.353084
    32  H    5.589246   6.008849   7.803200   8.602829  10.256145
    33  H    3.008023   3.714890   6.723341   7.082226   8.518366
    34  H    3.054629   3.461378   7.425223   7.849762   9.435548
    35  H    4.315418   4.505127   7.918413   8.479965   9.971439
    36  H    5.229091   6.118340   5.897036   6.707912   8.184108
    37  C    4.569326   5.775705   5.169637   5.832507   7.546198
    38  O    5.258230   6.159629   6.295641   7.068680   8.776634
    39  O    4.762519   6.112520   4.803646   5.326792   7.049804
                   11         12         13         14         15
    11  N    0.000000
    12  C    1.366705   0.000000
    13  Cl   2.709993   1.708330   0.000000
    14  N    3.306286   3.936147   3.967666   0.000000
    15  C    3.887100   4.396058   4.553455   1.366463   0.000000
    16  Cl   3.754897   4.346727   5.048389   2.707411   1.725172
    17  N    3.290116   4.627010   5.526414   3.362117   4.119729
    18  C    3.966939   5.291489   6.297543   4.667715   5.476354
    19  Cl   3.847032   4.964877   5.989858   5.502619   6.438405
    20  C    1.336298   2.153801   3.803656   4.283208   4.619560
    21  H    2.122850   3.191408   4.779793   4.534400   4.847199
    22  C    4.413141   4.837079   4.404948   1.359299   2.141169
    23  H    4.719466   5.123573   4.512320   2.136194   3.179565
    24  C    4.436373   5.751826   6.595349   3.695958   4.199927
    25  H    4.696763   5.916926   6.631927   3.241911   3.508947
    26  Co   2.030725   3.107188   3.655371   1.959338   3.009708
    27  C    6.384377   7.344957   7.344225   5.136225   6.314012
    28  C    6.669387   7.450250   7.258927   5.848437   7.146591
    29  O    5.058737   5.997744   6.006436   3.722389   4.950267
    30  C    6.693265   7.819013   8.121103   5.824132   6.894226
    31  H    7.301407   7.959157   7.544520   6.193813   7.480127
    32  H    7.276355   8.090255   8.003023   6.778767   8.074543
    33  H    6.589251   7.796563   8.221324   5.514128   6.429114
    34  H    6.248631   7.384309   7.814880   5.949247   7.058469
    35  H    7.769962   8.883840   9.146890   6.858264   7.913011
    36  H    7.097101   8.024507   7.909818   5.364886   6.446817
    37  C    4.465066   5.250966   5.161524   3.847167   5.191515
    38  O    5.479808   6.158798   5.956869   5.136607   6.491285
    39  O    3.357438   4.046916   3.975954   3.224103   4.563263
                   16         17         18         19         20
    16  Cl   0.000000
    17  N    4.158135   0.000000
    18  C    5.406739   1.367013   0.000000
    19  Cl   6.375813   2.715278   1.727604   0.000000
    20  C    3.982782   3.520318   3.954351   3.775793   0.000000
    21  H    4.064903   3.004775   3.273122   3.302420   1.080352
    22  C    3.807953   4.379092   5.617736   6.417936   5.521068
    23  H    4.783766   4.562821   5.651135   6.307191   5.917634
    24  C    4.203469   1.358057   2.140761   3.811993   4.590843
    25  H    3.610200   2.133352   3.178618   4.787892   4.957797
    26  Co   3.504118   1.989127   3.055437   3.590802   2.964763
    27  C    7.325299   4.219562   4.334981   4.994020   7.176246
    28  C    8.223748   5.091805   5.056121   5.215700   7.549660
    29  O    5.984979   3.205041   3.673741   4.396637   5.935114
    30  C    7.610243   4.004060   3.747810   4.538260   7.232412
    31  H    8.720658   5.949137   6.052721   6.223430   8.290451
    32  H    9.040279   5.589069   5.289365   5.272067   8.045353
    33  H    7.028562   3.590751   3.475373   4.640073   7.034688
    34  H    7.622452   3.692909   3.124533   3.630081   6.686154
    35  H    8.652237   5.057994   4.696524   5.398318   8.290516
    36  H    7.587870   4.904910   5.185525   6.007014   7.939059
    37  C    6.186751   3.401763   3.733393   3.931330   5.435682
    38  O    7.499912   4.492209   4.511255   4.380958   6.411917
    39  O    5.465228   3.157860   3.667667   3.684188   4.433914
                   21         22         23         24         25
    21  H    0.000000
    22  C    5.832303   0.000000
    23  H    6.240548   1.081865   0.000000
    24  C    3.963950   4.600429   4.888861   0.000000
    25  H    4.449276   4.073147   4.524761   1.081985   0.000000
    26  Co   3.110760   2.990104   3.187903   2.977026   3.146926
    27  C    6.970215   4.996790   4.341090   4.306213   4.641004
    28  C    7.484873   5.616895   4.769890   5.495014   5.917031
    29  O    5.828989   3.693514   3.126587   3.490466   3.732739
    30  C    6.813814   5.968202   5.497153   3.914038   4.474271
    31  H    8.315615   5.725496   4.768196   6.309628   6.598633
    32  H    7.909299   6.647796   5.829460   6.004200   6.558425
    33  H    6.521876   5.762482   5.472796   3.167250   3.658160
    34  H    6.242623   6.268603   5.820758   3.882252   4.650858
    35  H    7.844335   6.912038   6.385777   4.875757   5.408842
    36  H    7.745948   5.010327   4.347427   4.765660   4.888120
    37  C    5.495353   3.890759   3.217733   4.130938   4.507360
    38  O    6.476883   5.052889   4.236609   5.217231   5.689926
    39  O    4.664975   3.487143   2.986481   4.145474   4.484169
                   26         27         28         29         30
    26  Co   0.000000
    27  C    4.561434   0.000000
    28  C    5.099065   1.536438   0.000000
    29  O    3.174443   1.452550   2.309144   0.000000
    30  C    4.972842   1.511861   2.571092   2.421699   0.000000
    31  H    5.716460   2.211056   1.092090   2.910298   3.454842
    32  H    5.829811   2.206539   1.089745   3.184496   2.657544
    33  H    4.809196   2.155119   3.500394   2.644670   1.091693
    34  H    4.757397   2.159366   2.757254   2.726078   1.093229
    35  H    6.062806   2.142846   2.914889   3.367107   1.093504
    36  H    5.168941   1.090422   2.194094   2.045454   2.168210
    37  C    2.912348   2.268479   2.250766   1.321069   3.192385
    38  O    4.152124   2.336368   1.440155   2.202683   3.270593
    39  O    2.075951   3.439722   3.422690   2.244005   4.221335
                   31         32         33         34         35
    31  H    0.000000
    32  H    1.788580   0.000000
    33  H    4.316588   3.727502   0.000000
    34  H    3.803556   2.631610   1.766652   0.000000
    35  H    3.652232   2.706395   1.778149   1.776598   0.000000
    36  H    2.397804   2.898457   2.533482   3.075793   2.488044
    37  C    2.864841   3.061983   3.646510   3.095280   4.104152
    38  O    2.060228   2.058222   4.053974   3.088723   3.923789
    39  O    3.955623   4.170592   4.517311   3.980976   5.203692
                   36         37         38         39
    36  H    0.000000
    37  C    3.056656   0.000000
    38  O    3.176477   1.324311   0.000000
    39  O    4.175714   1.219275   2.238077   0.000000
 Symmetry turned off by external request.
 Stoichiometry    C13H9Cl6CoLiN6O3(4)
 Framework group  C1[X(C13H9Cl6CoLiN6O3)]
 Deg. of freedom   111
 Full point group                 C1      NOp   1
 Rotational constants (GHZ):           0.1189077           0.0826599           0.0672138
 General basis read from cards:  (5D, 7F)
 ======================================================================================================
                                       Pseudopotential Parameters
 ======================================================================================================
  Center     Atomic      Valence      Angular      Power
  Number     Number     Electrons     Momentum     of R      Exponent        Coefficient   SO-Coeffient
 ======================================================================================================
    1          3
                                   No pseudopotential on this center.
    2          7
                                   No pseudopotential on this center.
    3          6
                                   No pseudopotential on this center.
    4         17
                                   No pseudopotential on this center.
    5          7
                                   No pseudopotential on this center.
    6          6
                                   No pseudopotential on this center.
    7         17
                                   No pseudopotential on this center.
    8          7
                                   No pseudopotential on this center.
    9          6
                                   No pseudopotential on this center.
   10         17
                                   No pseudopotential on this center.
   11          7
                                   No pseudopotential on this center.
   12          6
                                   No pseudopotential on this center.
   13         17
                                   No pseudopotential on this center.
   14          7
                                   No pseudopotential on this center.
   15          6
                                   No pseudopotential on this center.
   16         17
                                   No pseudopotential on this center.
   17          7
                                   No pseudopotential on this center.
   18          6
                                   No pseudopotential on this center.
   19         17
                                   No pseudopotential on this center.
   20          6
                                   No pseudopotential on this center.
   21          1
                                   No pseudopotential on this center.
   22          6
                                   No pseudopotential on this center.
   23          1
                                   No pseudopotential on this center.
   24          6
                                   No pseudopotential on this center.
   25          1
                                   No pseudopotential on this center.
   26         27           17
                                      D and up 
                                                     1      434.1076104      -10.00000000    0.00000000
                                                     2       78.8402758      -66.72402760    0.00000000
                                                     2       19.6037749      -11.71922430    0.00000000
                                      S - D
                                                     0      151.2307582        3.00000000    0.00000000
                                                     1      169.6790026       20.15531100    0.00000000
                                                     2       64.9909423      413.37622440    0.00000000
                                                     2       12.5076287      133.87277050    0.00000000
                                      P - D
                                                     0       92.7319924        5.00000000    0.00000000
                                                     1      121.1910183        6.18923530    0.00000000
                                                     2       48.6265909      326.32159190    0.00000000
                                                     2       11.9966971       73.87889700    0.00000000
   27          6
                                   No pseudopotential on this center.
   28          6
                                   No pseudopotential on this center.
   29          8
                                   No pseudopotential on this center.
   30          6
                                   No pseudopotential on this center.
   31          1
                                   No pseudopotential on this center.
   32          1
                                   No pseudopotential on this center.
   33          1
                                   No pseudopotential on this center.
   34          1
                                   No pseudopotential on this center.
   35          1
                                   No pseudopotential on this center.
   36          1
                                   No pseudopotential on this center.
   37          6
                                   No pseudopotential on this center.
   38          8
                                   No pseudopotential on this center.
   39          8
                                   No pseudopotential on this center.
 ======================================================================================================
   497 basis functions,  1071 primitive gaussians,   528 cartesian basis functions
   139 alpha electrons      136 beta electrons
       nuclear repulsion energy      4406.9176145680 Hartrees.
 NAtoms=   39 NActive=   39 NUniq=   39 SFac= 1.00D+00 NAtFMM=   60 NAOKFM=F Big=F
 Integral buffers will be    131072 words long.
 Raffenetti 2 integral format.
 Two-electron integral symmetry is turned off.
 One-electron integrals computed using PRISM.
   1 Symmetry operations used in ECPInt.
 ECPInt:  NShTT=   12403 NPrTT=   87807 LenC2=    9859 LenP2D=   35852.
 LDataN:  DoStor=T MaxTD1= 4 Len=   56
 NBasis=   497 RedAO= T EigKep=  1.34D-03  NBF=   497
 NBsUse=   497 1.00D-06 EigRej= -1.00D+00 NBFU=   497
 ExpMin= 2.30D-02 ExpMax= 2.52D+04 ExpMxC= 3.78D+03 IAcc=3 IRadAn=         5 AccDes= 0.00D+00
 Harris functional with IExCor=20419 and IRadAn=       5 diagonalized for initial guess.
 HarFok:  IExCor=20419 AccDes= 0.00D+00 IRadAn=         5 IDoV= 1 UseB2=F ITyADJ=14
 ICtDFT=  3500011 ScaDFX=  1.000000  1.000000  1.000000  1.000000
 FoFCou: FMM=F IPFlag=           0 FMFlag=      100000 FMFlg1=           0
         NFxFlg=           0 DoJE=T BraDBF=F KetDBF=T FulRan=T
         wScrn=  0.000000 ICntrl=       500 IOpCl=  0 I1Cent=   200000004 NGrid=           0
         NMat0=    1 NMatS0=      1 NMatT0=    0 NMatD0=    1 NMtDS0=    0 NMtDT0=    0
 Symmetry not used in FoFCou.
 Initial guess <Sx>= 0.0000 <Sy>= 0.0000 <Sz>= 1.5000 <S**2>= 3.7500 S= 1.5000
 Gradient too large for Newton-Raphson -- use scaled steepest descent instead.
     Accept linear search using points  3 and  4.
 Gradient too large for Newton-Raphson -- use scaled steepest descent instead.
     Minimum is close to point  2 DX=  7.86D-03 DF= -1.44D-04 DXR=  1.93D-02 DFR=  3.72D-04 which will be used.
 Gradient too large for Newton-Raphson -- use scaled steepest descent instead.
 Gradient too large for Newton-Raphson -- use scaled steepest descent instead.
 Gradient too large for Newton-Raphson -- use scaled steepest descent instead.
     Minimum is close to point  2 DX=  3.84D-02 DF= -1.96D-04 DXR=  7.14D-02 DFR=  5.13D-03 which will be used.
 Gradient too large for Newton-Raphson -- use scaled steepest descent instead.
     Minimum is close to point  2 DX=  4.14D-02 DF= -1.38D-04 DXR=  7.64D-02 DFR=  5.87D-03 which will be used.
 Gradient too large for Newton-Raphson -- use scaled steepest descent instead.
 Gradient too large for Newton-Raphson -- use scaled steepest descent instead.
 Restarting incremental Fock formation.
     Accept linear search using points  1 and  2.
 Gradient too large for Newton-Raphson -- use scaled steepest descent instead.
 Gradient too large for Newton-Raphson -- use scaled steepest descent instead.
 Gradient too large for Newton-Raphson -- use scaled steepest descent instead.
 Gradient too large for Newton-Raphson -- use scaled steepest descent instead.
 Gradient too large for Newton-Raphson -- use scaled steepest descent instead.
 Restarting incremental Fock formation.
     Minimum is close to point  3 DX=  9.61D-03 DF= -8.81D-06 DXR=  1.19D-02 DFR=  1.34D-04 which will be used.
 Gradient too large for Newton-Raphson -- use scaled steepest descent instead.
     Accept linear search using points  1 and  2.
 Gradient too large for Newton-Raphson -- use scaled steepest descent instead.
     Accept linear search using points  3 and  4.
 Gradient too large for Newton-Raphson -- use scaled steepest descent instead.
     Accept linear search using points  1 and  2.
 Gradient too large for Newton-Raphson -- use scaled steepest descent instead.
 Gradient too large for Newton-Raphson -- use scaled steepest descent instead.
     Accept linear search using points  1 and  2.
 Gradient too large for Newton-Raphson -- use scaled steepest descent instead.
     Accept linear search using points  2 and  3.
     Minimum is close to point  3 DX= -1.33D-01 DF= -1.13D-05 DXR=  7.55D-02 DFR=  5.09D-03 which will be used.
 Gradient too large for Newton-Raphson -- use scaled steepest descent instead.
     Accept linear search using points  1 and  2.
 Gradient too large for Newton-Raphson -- use scaled steepest descent instead.
 Restarting incremental Fock formation.
     Minimum is close to point  3 DX=  1.50D-01 DF= -6.30D-06 DXR=  7.33D-02 DFR=  5.41D-03 which will be used.
 Gradient too large for Newton-Raphson -- use scaled steepest descent instead.
     Accept linear search using points  1 and  2.
 Gradient too large for Newton-Raphson -- use scaled steepest descent instead.
     Accept linear search using points  2 and  3.
 Gradient too large for Newton-Raphson -- use scaled steepest descent instead.
     Accept linear search using points  1 and  2.
 Gradient too large for Newton-Raphson -- use scaled steepest descent instead.
     Accept linear search using points  2 and  3.
 Gradient too large for Newton-Raphson -- use scaled steepest descent instead.
     Accept linear search using points  1 and  2.
 Gradient too large for Newton-Raphson -- use scaled steepest descent instead.
     Accept linear search using points  2 and  3.
 Gradient too large for Newton-Raphson -- use scaled steepest descent instead.
     Accept linear search using points  1 and  2.
 Gradient too large for Newton-Raphson -- use scaled steepest descent instead.
 Restarting incremental Fock formation.
     Accept linear search using points  2 and  3.
 Gradient too large for Newton-Raphson -- use scaled steepest descent instead.
     Accept linear search using points  1 and  2.
 LinEq1:  Iter=  0 NonCon=     1 RMS=6.77D-05 Max=7.82D-03 NDo=     1
 AX will form     1 AO Fock derivatives at one time.
 LinEq1:  Iter=  1 NonCon=     1 RMS=5.81D-05 Max=3.04D-03 NDo=     1
 LinEq1:  Iter=  2 NonCon=     1 RMS=1.16D-05 Max=1.27D-03 NDo=     1
 LinEq1:  Iter=  3 NonCon=     1 RMS=6.86D-06 Max=4.60D-04 NDo=     1
 LinEq1:  Iter=  4 NonCon=     1 RMS=4.85D-06 Max=5.90D-04 NDo=     1
 LinEq1:  Iter=  5 NonCon=     1 RMS=2.12D-06 Max=9.81D-05 NDo=     1
 LinEq1:  Iter=  6 NonCon=     1 RMS=1.51D-06 Max=1.01D-04 NDo=     1
 LinEq1:  Iter=  7 NonCon=     1 RMS=8.60D-07 Max=8.04D-05 NDo=     1
 LinEq1:  Iter=  8 NonCon=     1 RMS=6.73D-07 Max=6.83D-05 NDo=     1
 LinEq1:  Iter=  9 NonCon=     1 RMS=4.11D-07 Max=2.52D-05 NDo=     1
 LinEq1:  Iter= 10 NonCon=     1 RMS=1.89D-07 Max=7.62D-06 NDo=     1
 LinEq1:  Iter= 11 NonCon=     1 RMS=1.09D-07 Max=6.42D-06 NDo=     1
 LinEq1:  Iter= 12 NonCon=     1 RMS=7.11D-08 Max=4.67D-06 NDo=     1
 LinEq1:  Iter= 13 NonCon=     1 RMS=5.27D-08 Max=3.13D-06 NDo=     1
 LinEq1:  Iter= 14 NonCon=     1 RMS=3.46D-08 Max=1.60D-06 NDo=     1
 LinEq1:  Iter= 15 NonCon=     1 RMS=1.48D-08 Max=9.81D-07 NDo=     1
 LinEq1:  Iter= 16 NonCon=     1 RMS=9.00D-09 Max=4.25D-07 NDo=     1
 LinEq1:  Iter= 17 NonCon=     1 RMS=6.36D-09 Max=4.64D-07 NDo=     1
 LinEq1:  Iter= 18 NonCon=     0 RMS=3.62D-09 Max=2.91D-07 NDo=     1
 Linear equations converged to 3.144D-08 3.144D-07 after    18 iterations.
     Accept linear search using points  1 and  2.
 LinEq1:  Iter=  0 NonCon=     1 RMS=1.85D-05 Max=1.42D-03 NDo=     1
 LinEq1:  Iter=  1 NonCon=     1 RMS=1.70D-05 Max=8.97D-04 NDo=     1
 LinEq1:  Iter=  2 NonCon=     1 RMS=9.39D-06 Max=5.89D-04 NDo=     1
 LinEq1:  Iter=  3 NonCon=     1 RMS=6.38D-06 Max=3.58D-04 NDo=     1
 LinEq1:  Iter=  4 NonCon=     1 RMS=3.19D-06 Max=2.54D-04 NDo=     1
 LinEq1:  Iter=  5 NonCon=     1 RMS=2.01D-06 Max=1.75D-04 NDo=     1
 LinEq1:  Iter=  6 NonCon=     1 RMS=1.38D-06 Max=9.99D-05 NDo=     1
 LinEq1:  Iter=  7 NonCon=     1 RMS=8.28D-07 Max=3.57D-05 NDo=     1
 LinEq1:  Iter=  8 NonCon=     1 RMS=4.58D-07 Max=1.73D-05 NDo=     1
 LinEq1:  Iter=  9 NonCon=     1 RMS=3.04D-07 Max=1.43D-05 NDo=     1
 LinEq1:  Iter= 10 NonCon=     1 RMS=1.76D-07 Max=9.15D-06 NDo=     1
 LinEq1:  Iter= 11 NonCon=     1 RMS=1.11D-07 Max=8.05D-06 NDo=     1
 LinEq1:  Iter= 12 NonCon=     1 RMS=7.47D-08 Max=5.47D-06 NDo=     1
 LinEq1:  Iter= 13 NonCon=     1 RMS=4.21D-08 Max=2.23D-06 NDo=     1
 LinEq1:  Iter= 14 NonCon=     1 RMS=2.84D-08 Max=1.53D-06 NDo=     1
 LinEq1:  Iter= 15 NonCon=     1 RMS=1.77D-08 Max=1.24D-06 NDo=     1
 LinEq1:  Iter= 16 NonCon=     1 RMS=1.04D-08 Max=8.06D-07 NDo=     1
 LinEq1:  Iter= 17 NonCon=     1 RMS=6.74D-09 Max=5.24D-07 NDo=     1
 LinEq1:  Iter= 18 NonCon=     1 RMS=4.51D-09 Max=3.27D-07 NDo=     1
 LinEq1:  Iter= 19 NonCon=     0 RMS=2.25D-09 Max=1.17D-07 NDo=     1
 Linear equations converged to 3.144D-08 3.144D-07 after    19 iterations.
     Minimum is close to point  2 DX=  3.25D-03 DF= -4.32D-10 DXR=  3.24D-03 DFR=  1.05D-05 which will be used.
 LinEq1:  Iter=  0 NonCon=     1 RMS=1.38D-07 Max=1.19D-05 NDo=     1
 LinEq1:  Iter=  1 NonCon=     1 RMS=1.10D-07 Max=8.85D-06 NDo=     1
 LinEq1:  Iter=  2 NonCon=     1 RMS=7.34D-08 Max=5.51D-06 NDo=     1
 LinEq1:  Iter=  3 NonCon=     1 RMS=3.98D-08 Max=1.78D-06 NDo=     1
 LinEq1:  Iter=  4 NonCon=     1 RMS=2.37D-08 Max=1.94D-06 NDo=     1
 LinEq1:  Iter=  5 NonCon=     1 RMS=1.88D-08 Max=1.86D-06 NDo=     1
 LinEq1:  Iter=  6 NonCon=     1 RMS=1.21D-08 Max=1.03D-06 NDo=     1
 LinEq1:  Iter=  7 NonCon=     1 RMS=7.35D-09 Max=4.16D-07 NDo=     1
 LinEq1:  Iter=  8 NonCon=     1 RMS=4.12D-09 Max=1.95D-07 NDo=     1
 LinEq1:  Iter=  9 NonCon=     1 RMS=2.71D-09 Max=1.74D-07 NDo=     1
 LinEq1:  Iter= 10 NonCon=     1 RMS=1.81D-09 Max=9.55D-08 NDo=     1
 LinEq1:  Iter= 11 NonCon=     1 RMS=1.35D-09 Max=8.91D-08 NDo=     1
 LinEq1:  Iter= 12 NonCon=     1 RMS=8.99D-10 Max=6.20D-08 NDo=     1
 LinEq1:  Iter= 13 NonCon=     1 RMS=5.03D-10 Max=3.60D-08 NDo=     1
 LinEq1:  Iter= 14 NonCon=     1 RMS=2.99D-10 Max=2.01D-08 NDo=     1
 LinEq1:  Iter= 15 NonCon=     1 RMS=2.08D-10 Max=1.20D-08 NDo=     1
 LinEq1:  Iter= 16 NonCon=     1 RMS=1.14D-10 Max=6.95D-09 NDo=     1
 LinEq1:  Iter= 17 NonCon=     1 RMS=6.82D-11 Max=5.06D-09 NDo=     1
 LinEq1:  Iter= 18 NonCon=     0 RMS=3.73D-11 Max=2.71D-09 NDo=     1
 Linear equations converged to 3.890D-10 3.890D-09 after    18 iterations.
 SCF Done:  E(UCAM-B3LYP) =  -3968.30096819     a.u. after   34 cycles
            Convg  =    0.3675D-06                   145 Fock formations.
              S**2 =  3.7548                  -V/T =  2.0179
 <Sx>= 0.0000 <Sy>= 0.0000 <Sz>= 1.5000 <S**2>= 3.7548 S= 1.5012
 <L.S>=  0.00000000000    
 Annihilation of the first spin contaminant:
 S**2 before annihilation     3.7548,   after     3.7500
 DoSCS=F DFT=T ScalE2(SS,OS)=  1.000000  1.000000
 Range of M.O.s used for correlation:     1   497
 NBasis=   497 NAE=   139 NBE=   136 NFC=     0 NFV=     0
 NROrb=    497 NOA=   139 NOB=   136 NVA=   358 NVB=   361
   1 Symmetry operations used in ECPInt.
 ECPInt:  NShTT=   12403 NPrTT=   87807 LenC2=    9859 LenP2D=   35852.
 LDataN:  DoStor=T MaxTD1= 5 Len=  102
 Number of processors reduced to  22 by ecpmxn.
 Symmetrizing basis deriv contribution to polar:
 IMax=3 JMax=2 DiffMx= 0.00D+00
 G2DrvN: will do    40 centers at a time, making    1 passes.
 Calling FoFCou, ICntrl=  3107 FMM=F I1Cent=   0 AccDes= 0.00D+00.
 End of G2Drv F.D. properties file   721 does not exist.
 End of G2Drv F.D. properties file   722 does not exist.
 End of G2Drv F.D. properties file   788 does not exist.
          IDoAtm=001101101111111111111111111111111111111
          Differentiating once with respect to electric field.
                with respect to dipole field.
          Differentiating once with respect to nuclear coordinates.
 CalDSu exits because no D1Ps are significant.
          There are   108 degrees of freedom in the 1st order CPHF.  IDoFFX=6 NUNeed=     3.
    108 vectors produced by pass  0 Test12= 9.89D-14 1.00D-09 XBig12= 2.65D+02 2.74D+00.
 AX will form   108 AO Fock derivatives at one time.
    108 vectors produced by pass  1 Test12= 9.89D-14 1.00D-09 XBig12= 4.45D+01 7.90D-01.
    108 vectors produced by pass  2 Test12= 9.89D-14 1.00D-09 XBig12= 1.36D+00 1.76D-01.
    108 vectors produced by pass  3 Test12= 9.89D-14 1.00D-09 XBig12= 4.56D-02 2.86D-02.
    108 vectors produced by pass  4 Test12= 9.89D-14 1.00D-09 XBig12= 7.03D-04 3.54D-03.
    108 vectors produced by pass  5 Test12= 9.89D-14 1.00D-09 XBig12= 7.56D-06 3.20D-04.
    108 vectors produced by pass  6 Test12= 9.89D-14 1.00D-09 XBig12= 9.46D-08 2.67D-05.
     86 vectors produced by pass  7 Test12= 9.89D-14 1.00D-09 XBig12= 1.02D-09 2.99D-06.
     38 vectors produced by pass  8 Test12= 9.89D-14 1.00D-09 XBig12= 1.02D-11 2.21D-07.
      3 vectors produced by pass  9 Test12= 9.89D-14 1.00D-09 XBig12= 9.95D-14 2.01D-08.
      3 vectors produced by pass 10 Test12= 9.89D-14 1.00D-09 XBig12= 1.02D-15 2.94D-09.
 InvSVY:  IOpt=1 It=  1 EMax= 1.78D-14
 Solved reduced A of dimension   886 with   108 vectors.
 Isotropic polarizability for W=    0.000000      253.27 Bohr**3.
 End of Minotr F.D. properties file   721 does not exist.
 End of Minotr F.D. properties file   722 does not exist.
 End of Minotr F.D. properties file   788 does not exist.

 **********************************************************************

            Population analysis using the SCF density.

 **********************************************************************

 Alpha  occ. eigenvalues -- -101.66188-101.62288-101.60159-101.58984-101.58110
 Alpha  occ. eigenvalues -- -101.56711 -19.31805 -19.31353 -19.26831 -14.44629
 Alpha  occ. eigenvalues --  -14.44259 -14.40717 -14.40000 -14.36587 -14.35608
 Alpha  occ. eigenvalues --  -10.48929 -10.36634 -10.36411 -10.35878 -10.35619
 Alpha  occ. eigenvalues --  -10.33759 -10.30988 -10.30057 -10.29867 -10.28891
 Alpha  occ. eigenvalues --  -10.28094 -10.27462 -10.27086  -9.59408  -9.55463
 Alpha  occ. eigenvalues --   -9.53325  -9.52154  -9.51361  -9.49973  -7.35798
 Alpha  occ. eigenvalues --   -7.34922  -7.34793  -7.31947  -7.30873  -7.30865
 Alpha  occ. eigenvalues --   -7.29758  -7.28766  -7.28761  -7.28588  -7.27793
 Alpha  occ. eigenvalues --   -7.27601  -7.27582  -7.26803  -7.26780  -7.26409
 Alpha  occ. eigenvalues --   -7.25409  -7.25391  -3.95330  -2.65430  -2.65251
 Alpha  occ. eigenvalues --   -2.64294  -2.15882  -1.29468  -1.17374  -1.16867
 Alpha  occ. eigenvalues --   -1.13181  -1.07554  -1.06665  -1.00878  -0.98244
 Alpha  occ. eigenvalues --   -0.94835  -0.93796  -0.93432  -0.93355  -0.92167
 Alpha  occ. eigenvalues --   -0.91787  -0.88245  -0.87185  -0.82775  -0.82010
 Alpha  occ. eigenvalues --   -0.76510  -0.75690  -0.75585  -0.71828  -0.69598
 Alpha  occ. eigenvalues --   -0.67225  -0.65050  -0.64023  -0.63322  -0.63139
 Alpha  occ. eigenvalues --   -0.61550  -0.61369  -0.60504  -0.60336  -0.57983
 Alpha  occ. eigenvalues --   -0.56618  -0.55939  -0.55513  -0.55139  -0.53447
 Alpha  occ. eigenvalues --   -0.52130  -0.51770  -0.50935  -0.50478  -0.50411
 Alpha  occ. eigenvalues --   -0.49566  -0.49258  -0.48646  -0.48279  -0.48078
 Alpha  occ. eigenvalues --   -0.47442  -0.47191  -0.46239  -0.45743  -0.45627
 Alpha  occ. eigenvalues --   -0.44929  -0.44737  -0.44631  -0.44224  -0.43764
 Alpha  occ. eigenvalues --   -0.42963  -0.42881  -0.41342  -0.40643  -0.40070
 Alpha  occ. eigenvalues --   -0.39712  -0.39392  -0.39103  -0.38905  -0.38415
 Alpha  occ. eigenvalues --   -0.38202  -0.37667  -0.36849  -0.36542  -0.35147
 Alpha  occ. eigenvalues --   -0.34889  -0.33715  -0.31434  -0.30378  -0.30215
 Alpha  occ. eigenvalues --   -0.29759  -0.29006  -0.24857  -0.23718
 Alpha virt. eigenvalues --   -0.05664   0.00094   0.00881   0.04439   0.04834
 Alpha virt. eigenvalues --    0.04926   0.05244   0.05772   0.06964   0.07198
 Alpha virt. eigenvalues --    0.07802   0.09615   0.10102   0.10775   0.11238
 Alpha virt. eigenvalues --    0.11720   0.12125   0.12298   0.13284   0.13485
 Alpha virt. eigenvalues --    0.13632   0.13657   0.14003   0.14797   0.14910
 Alpha virt. eigenvalues --    0.15149   0.15205   0.17015   0.18378   0.19542
 Alpha virt. eigenvalues --    0.20064   0.20495   0.20623   0.22168   0.22437
 Alpha virt. eigenvalues --    0.23656   0.24029   0.24653   0.25392   0.26782
 Alpha virt. eigenvalues --    0.27307   0.27785   0.29864   0.30137   0.31508
 Alpha virt. eigenvalues --    0.32490   0.33245   0.33557   0.35851   0.37127
 Alpha virt. eigenvalues --    0.38861   0.39215   0.40409   0.40537   0.41420
 Alpha virt. eigenvalues --    0.41706   0.42252   0.42390   0.42730   0.43038
 Alpha virt. eigenvalues --    0.43606   0.44388   0.45272   0.46503   0.46888
 Alpha virt. eigenvalues --    0.47236   0.47453   0.48176   0.48986   0.49541
 Alpha virt. eigenvalues --    0.49990   0.50288   0.50828   0.51058   0.51799
 Alpha virt. eigenvalues --    0.52806   0.53082   0.53319   0.53516   0.54472
 Alpha virt. eigenvalues --    0.55051   0.55785   0.56407   0.56714   0.57654
 Alpha virt. eigenvalues --    0.59090   0.59283   0.59773   0.60434   0.61870
 Alpha virt. eigenvalues --    0.62151   0.62312   0.63713   0.64033   0.64379
 Alpha virt. eigenvalues --    0.64528   0.65088   0.66156   0.66908   0.67439
 Alpha virt. eigenvalues --    0.67700   0.67850   0.68641   0.69250   0.69778
 Alpha virt. eigenvalues --    0.70563   0.70981   0.71731   0.72595   0.72958
 Alpha virt. eigenvalues --    0.73292   0.73543   0.73881   0.75442   0.75794
 Alpha virt. eigenvalues --    0.76284   0.77034   0.77981   0.79801   0.80855
 Alpha virt. eigenvalues --    0.81350   0.82866   0.83131   0.83960   0.84782
 Alpha virt. eigenvalues --    0.85412   0.85991   0.86540   0.87284   0.87594
 Alpha virt. eigenvalues --    0.88192   0.88855   0.89448   0.90225   0.90438
 Alpha virt. eigenvalues --    0.90902   0.90957   0.91207   0.91276   0.92041
 Alpha virt. eigenvalues --    0.92494   0.92665   0.92748   0.93188   0.93619
 Alpha virt. eigenvalues --    0.94042   0.94325   0.94486   0.95001   0.95207
 Alpha virt. eigenvalues --    0.95938   0.96290   0.96443   0.97087   0.97323
 Alpha virt. eigenvalues --    0.97955   0.98483   0.99067   0.99858   1.00656
 Alpha virt. eigenvalues --    1.01010   1.02169   1.02555   1.02952   1.03775
 Alpha virt. eigenvalues --    1.03942   1.04141   1.04633   1.06286   1.06568
 Alpha virt. eigenvalues --    1.06921   1.07431   1.07984   1.08338   1.08844
 Alpha virt. eigenvalues --    1.09492   1.10641   1.11663   1.12312   1.13060
 Alpha virt. eigenvalues --    1.13463   1.13867   1.14955   1.15928   1.15982
 Alpha virt. eigenvalues --    1.16661   1.16903   1.17885   1.19068   1.19442
 Alpha virt. eigenvalues --    1.21291   1.22371   1.22439   1.23172   1.24502
 Alpha virt. eigenvalues --    1.26049   1.30470   1.31551   1.31964   1.35705
 Alpha virt. eigenvalues --    1.36726   1.37681   1.38863   1.39320   1.40252
 Alpha virt. eigenvalues --    1.41889   1.42639   1.44535   1.45122   1.46285
 Alpha virt. eigenvalues --    1.46677   1.46961   1.47476   1.48824   1.49179
 Alpha virt. eigenvalues --    1.49714   1.49757   1.50793   1.51326   1.53649
 Alpha virt. eigenvalues --    1.54102   1.55201   1.57574   1.59975   1.62607
 Alpha virt. eigenvalues --    1.63947   1.65446   1.65656   1.67156   1.67471
 Alpha virt. eigenvalues --    1.68445   1.68631   1.68757   1.70361   1.71129
 Alpha virt. eigenvalues --    1.71846   1.72251   1.74040   1.74962   1.76397
 Alpha virt. eigenvalues --    1.77384   1.78800   1.79555   1.81333   1.83964
 Alpha virt. eigenvalues --    1.84244   1.89542   1.90509   1.92176   1.92309
 Alpha virt. eigenvalues --    1.94802   1.96877   1.97381   1.97724   1.98272
 Alpha virt. eigenvalues --    1.98985   2.00648   2.02287   2.02423   2.03872
 Alpha virt. eigenvalues --    2.06582   2.06794   2.07436   2.10108   2.10391
 Alpha virt. eigenvalues --    2.11932   2.12679   2.12922   2.14472   2.14838
 Alpha virt. eigenvalues --    2.15414   2.17189   2.18109   2.19211   2.19755
 Alpha virt. eigenvalues --    2.21038   2.21900   2.25547   2.26051   2.27596
 Alpha virt. eigenvalues --    2.28795   2.29371   2.30498   2.32756   2.33475
 Alpha virt. eigenvalues --    2.33777   2.35123   2.35207   2.36220   2.36824
 Alpha virt. eigenvalues --    2.38193   2.38855   2.39688   2.40783   2.41858
 Alpha virt. eigenvalues --    2.42446   2.46517   2.47154   2.48972   2.49738
 Alpha virt. eigenvalues --    2.53653   2.58792   2.61055   2.62297   2.63085
 Alpha virt. eigenvalues --    2.63810   2.65203   2.66206   2.66427   2.67188
 Alpha virt. eigenvalues --    2.67662   2.68926   2.69979   2.70612   2.71425
 Alpha virt. eigenvalues --    2.71655   2.71803   2.73003   2.73941   2.76080
 Alpha virt. eigenvalues --    2.76843   2.77060   2.78247   2.78342   2.84321
 Alpha virt. eigenvalues --    2.84972   2.85768   2.86326   2.88292   2.88990
 Alpha virt. eigenvalues --    2.89696   2.90324   2.90705   2.92516   2.93576
 Alpha virt. eigenvalues --    2.96097   2.97009   2.97984   2.98668   3.00757
 Alpha virt. eigenvalues --    3.04712   3.05873   3.09837   3.18632   3.22176
 Alpha virt. eigenvalues --    3.24239   3.25009   3.25200   3.27933   3.33030
 Alpha virt. eigenvalues --    3.38026   3.49280   3.52760   3.55724   3.57599
 Alpha virt. eigenvalues --    3.61248   3.62378   5.91735
  Beta  occ. eigenvalues -- -101.66187-101.62287-101.60158-101.58982-101.58109
  Beta  occ. eigenvalues -- -101.56709 -19.31795 -19.31348 -19.26700 -14.44501
  Beta  occ. eigenvalues --  -14.44254 -14.40570 -14.39842 -14.36580 -14.35594
  Beta  occ. eigenvalues --  -10.48922 -10.36634 -10.36409 -10.35869 -10.35617
  Beta  occ. eigenvalues --  -10.33748 -10.30988 -10.30039 -10.29878 -10.28865
  Beta  occ. eigenvalues --  -10.28079 -10.27437 -10.27086  -9.59407  -9.55462
  Beta  occ. eigenvalues --   -9.53324  -9.52152  -9.51360  -9.49972  -7.35796
  Beta  occ. eigenvalues --   -7.34921  -7.34791  -7.31945  -7.30871  -7.30865
  Beta  occ. eigenvalues --   -7.29756  -7.28766  -7.28758  -7.28585  -7.27791
  Beta  occ. eigenvalues --   -7.27595  -7.27581  -7.26801  -7.26778  -7.26408
  Beta  occ. eigenvalues --   -7.25405  -7.25390  -3.79923  -2.48634  -2.48512
  Beta  occ. eigenvalues --   -2.48393  -2.15881  -1.29428  -1.17341  -1.16666
  Beta  occ. eigenvalues --   -1.13089  -1.07422  -1.06501  -1.00809  -0.98223
  Beta  occ. eigenvalues --   -0.94782  -0.93728  -0.93341  -0.93284  -0.92079
  Beta  occ. eigenvalues --   -0.91771  -0.88137  -0.87065  -0.82751  -0.81965
  Beta  occ. eigenvalues --   -0.76444  -0.75663  -0.75525  -0.71761  -0.69469
  Beta  occ. eigenvalues --   -0.67130  -0.64908  -0.63837  -0.63087  -0.62918
  Beta  occ. eigenvalues --   -0.61311  -0.61237  -0.60383  -0.60272  -0.57480
  Beta  occ. eigenvalues --   -0.56083  -0.55600  -0.55062  -0.54905  -0.53362
  Beta  occ. eigenvalues --   -0.52050  -0.51365  -0.50449  -0.50113  -0.48776
  Beta  occ. eigenvalues --   -0.48312  -0.48131  -0.47922  -0.47256  -0.47203
  Beta  occ. eigenvalues --   -0.45939  -0.45652  -0.45030  -0.44589  -0.44357
  Beta  occ. eigenvalues --   -0.44154  -0.42980  -0.42811  -0.42538  -0.42253
  Beta  occ. eigenvalues --   -0.41925  -0.40613  -0.40056  -0.39315  -0.39214
  Beta  occ. eigenvalues --   -0.38883  -0.38470  -0.37961  -0.37299  -0.36712
  Beta  occ. eigenvalues --   -0.36314  -0.35489  -0.34852  -0.34170  -0.31618
  Beta  occ. eigenvalues --   -0.30668  -0.30184  -0.29745  -0.29083  -0.24849
  Beta  occ. eigenvalues --   -0.23705
  Beta virt. eigenvalues --   -0.05668  -0.01425  -0.00708  -0.00409   0.00206
  Beta virt. eigenvalues --    0.00985   0.04836   0.04869   0.05097   0.05314
  Beta virt. eigenvalues --    0.05952   0.07104   0.07307   0.08073   0.09886
  Beta virt. eigenvalues --    0.10220   0.11277   0.11351   0.12224   0.12333
  Beta virt. eigenvalues --    0.12617   0.13436   0.13579   0.13712   0.13750
  Beta virt. eigenvalues --    0.14172   0.14832   0.15025   0.15237   0.15441
  Beta virt. eigenvalues --    0.17063   0.18450   0.19833   0.20288   0.20603
  Beta virt. eigenvalues --    0.21394   0.22397   0.23006   0.24035   0.24578
  Beta virt. eigenvalues --    0.25091   0.25875   0.26824   0.27653   0.27855
  Beta virt. eigenvalues --    0.29940   0.30217   0.31610   0.32588   0.33400
  Beta virt. eigenvalues --    0.33780   0.36039   0.37170   0.39026   0.39332
  Beta virt. eigenvalues --    0.40555   0.40682   0.41449   0.41803   0.42462
  Beta virt. eigenvalues --    0.42490   0.42836   0.43143   0.43709   0.44510
  Beta virt. eigenvalues --    0.45412   0.46780   0.47060   0.47313   0.47544
  Beta virt. eigenvalues --    0.48229   0.49052   0.49567   0.50036   0.50426
  Beta virt. eigenvalues --    0.50867   0.51103   0.51888   0.52833   0.53137
  Beta virt. eigenvalues --    0.53379   0.53610   0.54550   0.55092   0.55831
  Beta virt. eigenvalues --    0.56503   0.56840   0.57683   0.59146   0.59514
  Beta virt. eigenvalues --    0.59879   0.60559   0.61916   0.62279   0.62384
  Beta virt. eigenvalues --    0.63793   0.64129   0.64422   0.64581   0.65186
  Beta virt. eigenvalues --    0.66305   0.67015   0.67540   0.67764   0.67971
  Beta virt. eigenvalues --    0.68709   0.69328   0.69900   0.70673   0.71094
  Beta virt. eigenvalues --    0.71806   0.72668   0.73119   0.73385   0.73733
  Beta virt. eigenvalues --    0.73992   0.75625   0.76027   0.76391   0.77195
  Beta virt. eigenvalues --    0.78375   0.79935   0.81131   0.81554   0.83142
  Beta virt. eigenvalues --    0.83515   0.84228   0.84959   0.85686   0.86128
  Beta virt. eigenvalues --    0.86655   0.87443   0.87772   0.88477   0.88940
  Beta virt. eigenvalues --    0.89612   0.90393   0.90520   0.90970   0.91034
  Beta virt. eigenvalues --    0.91337   0.91421   0.92152   0.92559   0.92757
  Beta virt. eigenvalues --    0.93106   0.93670   0.93727   0.94158   0.94400
  Beta virt. eigenvalues --    0.94540   0.95085   0.95646   0.96111   0.96449
  Beta virt. eigenvalues --    0.96637   0.97320   0.97472   0.98030   0.98649
  Beta virt. eigenvalues --    0.99143   1.00272   1.00981   1.01338   1.02392
  Beta virt. eigenvalues --    1.02742   1.03210   1.04076   1.04271   1.04576
  Beta virt. eigenvalues --    1.04930   1.06504   1.06775   1.07211   1.07652
  Beta virt. eigenvalues --    1.08119   1.08575   1.09524   1.09941   1.11175
  Beta virt. eigenvalues --    1.12056   1.12585   1.13239   1.13575   1.14356
  Beta virt. eigenvalues --    1.15699   1.16019   1.16299   1.16911   1.17016
  Beta virt. eigenvalues --    1.18134   1.19143   1.19594   1.21483   1.22580
  Beta virt. eigenvalues --    1.22971   1.23388   1.24728   1.26190   1.30588
  Beta virt. eigenvalues --    1.31690   1.32260   1.35757   1.36856   1.37747
  Beta virt. eigenvalues --    1.38947   1.39379   1.40321   1.42006   1.42765
  Beta virt. eigenvalues --    1.44681   1.45165   1.46371   1.46837   1.47069
  Beta virt. eigenvalues --    1.47635   1.48892   1.49305   1.49829   1.49891
  Beta virt. eigenvalues --    1.50878   1.51499   1.53750   1.54165   1.55341
  Beta virt. eigenvalues --    1.57708   1.60166   1.62632   1.64016   1.65561
  Beta virt. eigenvalues --    1.65759   1.67275   1.67508   1.68541   1.68680
  Beta virt. eigenvalues --    1.68818   1.70453   1.71192   1.71970   1.72403
  Beta virt. eigenvalues --    1.74147   1.75078   1.76497   1.77595   1.79021
  Beta virt. eigenvalues --    1.79709   1.81475   1.83973   1.84297   1.89578
  Beta virt. eigenvalues --    1.90603   1.92303   1.92399   1.94929   1.96915
  Beta virt. eigenvalues --    1.97454   1.97807   1.98363   1.99095   2.00687
  Beta virt. eigenvalues --    2.02419   2.02533   2.04008   2.06652   2.06856
  Beta virt. eigenvalues --    2.07503   2.10115   2.10476   2.11983   2.12719
  Beta virt. eigenvalues --    2.13051   2.14547   2.14935   2.15440   2.17233
  Beta virt. eigenvalues --    2.18129   2.19262   2.19822   2.21124   2.21906
  Beta virt. eigenvalues --    2.25651   2.26176   2.27644   2.28834   2.29382
  Beta virt. eigenvalues --    2.30570   2.32802   2.33490   2.33853   2.35161
  Beta virt. eigenvalues --    2.35260   2.36312   2.36946   2.38254   2.38900
  Beta virt. eigenvalues --    2.39724   2.40904   2.41926   2.42525   2.46534
  Beta virt. eigenvalues --    2.47168   2.49054   2.49845   2.53681   2.58801
  Beta virt. eigenvalues --    2.61080   2.62318   2.63133   2.63884   2.65291
  Beta virt. eigenvalues --    2.66248   2.66465   2.67239   2.67722   2.69011
  Beta virt. eigenvalues --    2.70083   2.70717   2.71476   2.71766   2.71883
  Beta virt. eigenvalues --    2.73078   2.73989   2.76103   2.76958   2.77195
  Beta virt. eigenvalues --    2.78270   2.78382   2.84395   2.85002   2.85801
  Beta virt. eigenvalues --    2.86342   2.88381   2.89048   2.89777   2.90381
  Beta virt. eigenvalues --    2.90738   2.92591   2.93588   2.96198   2.97102
  Beta virt. eigenvalues --    2.98038   2.98677   3.00770   3.04754   3.05918
  Beta virt. eigenvalues --    3.09914   3.18682   3.22218   3.24299   3.25043
  Beta virt. eigenvalues --    3.25265   3.27936   3.33035   3.38028   3.49281
  Beta virt. eigenvalues --    3.52761   3.55725   3.57638   3.61286   3.62421
  Beta virt. eigenvalues --    5.90860
          Condensed to atoms (all electrons):
               1          2          3          4          5          6
     1  Li   2.124792   0.218862  -0.034385   0.085978  -0.000010   0.000006
     2  N    0.218862   6.698723   0.324854  -0.080607  -0.000000  -0.000000
     3  C   -0.034385   0.324854   5.099105   0.226930  -0.000000  -0.000000
     4  Cl   0.085978  -0.080607   0.226930  16.743526  -0.000000  -0.000000
     5  N   -0.000010  -0.000000  -0.000000  -0.000000   6.600268   0.453662
     6  C    0.000006  -0.000000  -0.000000  -0.000000   0.453662   4.970804
     7  Cl  -0.000003  -0.000000   0.000000  -0.000000  -0.054205   0.256047
     8  N   -0.000008   0.000000   0.000000   0.000000   0.000000  -0.000000
     9  C   -0.000012  -0.000000   0.000001  -0.000000  -0.000000  -0.000000
    10  Cl  -0.000002   0.000000  -0.000000   0.000000   0.000000   0.000000
    11  N    0.003219  -0.073825  -0.081774   0.003694  -0.000000   0.000003
    12  C    0.006947  -0.063049   0.563447  -0.055727   0.000000   0.000000
    13  Cl  -0.000134   0.003056  -0.074253   0.006562   0.000000   0.000000
    14  N   -0.000049   0.000002  -0.000009   0.000000   0.000015  -0.000000
    15  C   -0.000063   0.000000  -0.000002  -0.000000   0.000002  -0.000001
    16  Cl   0.001859  -0.000129  -0.000015  -0.000003   0.000008   0.000001
    17  N   -0.000220   0.000031  -0.000000   0.000000  -0.091413  -0.084420
    18  C    0.000053   0.000006  -0.000001  -0.000000  -0.071231   0.567073
    19  Cl   0.000554  -0.000060  -0.000003   0.000000   0.004380  -0.062820
    20  C   -0.009841   0.507834  -0.094863   0.005997   0.000000  -0.000010
    21  H   -0.000210  -0.035113   0.004752  -0.000148  -0.000014  -0.000051
    22  C   -0.000017   0.000000  -0.000001  -0.000000   0.000002   0.000000
    23  H    0.000000  -0.000000  -0.000000   0.000000  -0.000000   0.000000
    24  C   -0.000060   0.000001   0.000000  -0.000000   0.559773  -0.110593
    25  H    0.000001   0.000000   0.000000  -0.000000  -0.037741   0.005692
    26  Co   0.000884   0.004151  -0.000352   0.000027   0.009192  -0.000979
    27  C   -0.000000   0.000000  -0.000000  -0.000000   0.000053   0.000005
    28  C    0.000000  -0.000000   0.000000  -0.000000  -0.000001  -0.000004
    29  O    0.000003   0.000000   0.000000   0.000000  -0.000112  -0.000158
    30  C    0.000000  -0.000000   0.000000   0.000000  -0.003139  -0.000872
    31  H    0.000000  -0.000000  -0.000000   0.000000   0.000000   0.000000
    32  H   -0.000000  -0.000000  -0.000000   0.000000   0.000000  -0.000000
    33  H    0.000000  -0.000000  -0.000000   0.000000   0.008036  -0.000426
    34  H   -0.000000  -0.000000  -0.000000   0.000000  -0.000420   0.001439
    35  H   -0.000000   0.000000  -0.000000  -0.000000   0.000032   0.000145
    36  H   -0.000000  -0.000000  -0.000000   0.000000  -0.000003  -0.000002
    37  C    0.000001   0.000000   0.000000  -0.000000  -0.000011   0.000003
    38  O    0.000001   0.000000  -0.000000   0.000000   0.000000   0.000002
    39  O   -0.000046  -0.000000  -0.000002   0.000000   0.000002  -0.000006
               7          8          9         10         11         12
     1  Li  -0.000003  -0.000008  -0.000012  -0.000002   0.003219   0.006947
     2  N   -0.000000   0.000000  -0.000000   0.000000  -0.073825  -0.063049
     3  C    0.000000   0.000000   0.000001  -0.000000  -0.081774   0.563447
     4  Cl  -0.000000   0.000000  -0.000000   0.000000   0.003694  -0.055727
     5  N   -0.054205   0.000000  -0.000000   0.000000  -0.000000   0.000000
     6  C    0.256047  -0.000000  -0.000000   0.000000   0.000003   0.000000
     7  Cl  16.886769  -0.000000  -0.000000  -0.000000   0.000000  -0.000000
     8  N   -0.000000   6.578877   0.456956  -0.053783   0.000002  -0.000000
     9  C   -0.000000   0.456956   4.931138   0.259216  -0.000017   0.000002
    10  Cl  -0.000000  -0.053783   0.259216  16.879242   0.000000  -0.000000
    11  N    0.000000   0.000002  -0.000017   0.000000   6.741410   0.418843
    12  C   -0.000000  -0.000000   0.000002  -0.000000   0.418843   4.893992
    13  Cl  -0.000000  -0.000003  -0.000014  -0.000000  -0.056137   0.288968
    14  N    0.000000  -0.093707  -0.075412   0.003930  -0.007242  -0.001051
    15  C    0.000000  -0.065291   0.577894  -0.077238  -0.000811   0.000325
    16  Cl   0.000000   0.004618  -0.060398   0.007278  -0.001765   0.000179
    17  N    0.003898   0.000001   0.000013   0.000000  -0.006973   0.000131
    18  C   -0.078050   0.000000   0.000000  -0.000000  -0.000723  -0.000005
    19  Cl   0.007687   0.000000   0.000000  -0.000000  -0.000998  -0.000042
    20  C   -0.000000   0.000000  -0.000002  -0.000000   0.462541  -0.094535
    21  H   -0.000001  -0.000000  -0.000000  -0.000000  -0.035846   0.004126
    22  C   -0.000000   0.572574  -0.111338   0.005483   0.000259  -0.000081
    23  H   -0.000000  -0.038695   0.005725  -0.000145  -0.000002  -0.000002
    24  C    0.005481   0.000001  -0.000011  -0.000000   0.000278  -0.000001
    25  H   -0.000124  -0.000012  -0.000016  -0.000002   0.000012  -0.000000
    26  Co  -0.000119   0.010989  -0.000915  -0.000217   0.142954  -0.019707
    27  C    0.000052   0.000000  -0.000000  -0.000000   0.000000  -0.000000
    28  C   -0.000000  -0.000000   0.000000  -0.000000  -0.000000   0.000000
    29  O   -0.000002   0.000005   0.000000   0.000000  -0.000001  -0.000000
    30  C    0.000146   0.000000   0.000000  -0.000000  -0.000000   0.000000
    31  H   -0.000000   0.000000  -0.000000  -0.000000  -0.000000  -0.000000
    32  H    0.000000  -0.000000  -0.000000  -0.000000  -0.000000   0.000000
    33  H   -0.000206  -0.000000   0.000000  -0.000000  -0.000000  -0.000000
    34  H    0.000720  -0.000000  -0.000000  -0.000000  -0.000000  -0.000000
    35  H   -0.000086  -0.000000   0.000000  -0.000000   0.000000  -0.000000
    36  H   -0.000000  -0.000000  -0.000000   0.000000  -0.000000  -0.000000
    37  C   -0.000004   0.000010  -0.000001   0.000000  -0.000003  -0.000000
    38  O   -0.000000  -0.000000  -0.000000   0.000000  -0.000000  -0.000000
    39  O    0.000000   0.000012  -0.000006   0.000000  -0.001456  -0.000194
              13         14         15         16         17         18
     1  Li  -0.000134  -0.000049  -0.000063   0.001859  -0.000220   0.000053
     2  N    0.003056   0.000002   0.000000  -0.000129   0.000031   0.000006
     3  C   -0.074253  -0.000009  -0.000002  -0.000015  -0.000000  -0.000001
     4  Cl   0.006562   0.000000  -0.000000  -0.000003   0.000000  -0.000000
     5  N    0.000000   0.000015   0.000002   0.000008  -0.091413  -0.071231
     6  C    0.000000  -0.000000  -0.000001   0.000001  -0.084420   0.567073
     7  Cl  -0.000000   0.000000   0.000000   0.000000   0.003898  -0.078050
     8  N   -0.000003  -0.093707  -0.065291   0.004618   0.000001   0.000000
     9  C   -0.000014  -0.075412   0.577894  -0.060398   0.000013   0.000000
    10  Cl  -0.000000   0.003930  -0.077238   0.007278   0.000000  -0.000000
    11  N   -0.056137  -0.007242  -0.000811  -0.001765  -0.006973  -0.000723
    12  C    0.288968  -0.001051   0.000325   0.000179   0.000131  -0.000005
    13  Cl  16.756965  -0.000314   0.000114  -0.000059   0.000012  -0.000000
    14  N   -0.000314   6.894646   0.387762  -0.064312  -0.007414   0.000148
    15  C    0.000114   0.387762   5.011255   0.238331  -0.000289   0.000001
    16  Cl  -0.000059  -0.064312   0.238331  16.869252  -0.000694  -0.000017
    17  N    0.000012  -0.007414  -0.000289  -0.000694   6.885537   0.399188
    18  C   -0.000000   0.000148   0.000001  -0.000017   0.399188   5.055291
    19  Cl  -0.000005   0.000013   0.000000  -0.000001  -0.063148   0.236740
    20  C    0.005023   0.000217  -0.000141   0.000950  -0.002121  -0.000366
    21  H   -0.000098   0.000004  -0.000003  -0.000189   0.002756   0.001802
    22  C    0.000179   0.401757  -0.102031   0.006562   0.000099  -0.000004
    23  H   -0.000038  -0.056282   0.005248  -0.000104  -0.000002   0.000001
    24  C   -0.000000  -0.001222  -0.000149   0.000152   0.394956  -0.104481
    25  H   -0.000000   0.001182   0.001289  -0.000222  -0.050057   0.004883
    26  Co   0.007616   0.173592  -0.021934   0.015300   0.172550  -0.022965
    27  C   -0.000000   0.000004   0.000000   0.000000  -0.000147  -0.000275
    28  C    0.000000  -0.000000  -0.000000  -0.000000   0.000002  -0.000017
    29  O   -0.000000  -0.000327  -0.000013  -0.000000  -0.002159   0.000747
    30  C   -0.000000  -0.000000   0.000000   0.000000   0.000399   0.000154
    31  H   -0.000000  -0.000000  -0.000000  -0.000000   0.000000  -0.000000
    32  H   -0.000000   0.000000   0.000000   0.000000  -0.000000   0.000001
    33  H   -0.000000  -0.000000   0.000000  -0.000000  -0.000099  -0.001674
    34  H   -0.000000  -0.000000  -0.000000  -0.000000  -0.000225   0.002372
    35  H   -0.000000  -0.000000  -0.000000  -0.000000   0.000000   0.000059
    36  H   -0.000000   0.000001   0.000000   0.000000  -0.000007   0.000006
    37  C   -0.000009  -0.000255   0.000007   0.000002  -0.002059   0.002288
    38  O    0.000000  -0.000000   0.000000   0.000000  -0.000031  -0.000058
    39  O   -0.000382  -0.003033   0.000123   0.000012  -0.004328  -0.000955
              19         20         21         22         23         24
     1  Li   0.000554  -0.009841  -0.000210  -0.000017   0.000000  -0.000060
     2  N   -0.000060   0.507834  -0.035113   0.000000  -0.000000   0.000001
     3  C   -0.000003  -0.094863   0.004752  -0.000001  -0.000000   0.000000
     4  Cl   0.000000   0.005997  -0.000148  -0.000000   0.000000  -0.000000
     5  N    0.004380   0.000000  -0.000014   0.000002  -0.000000   0.559773
     6  C   -0.062820  -0.000010  -0.000051   0.000000   0.000000  -0.110593
     7  Cl   0.007687  -0.000000  -0.000001  -0.000000  -0.000000   0.005481
     8  N    0.000000   0.000000  -0.000000   0.572574  -0.038695   0.000001
     9  C    0.000000  -0.000002  -0.000000  -0.111338   0.005725  -0.000011
    10  Cl  -0.000000  -0.000000  -0.000000   0.005483  -0.000145  -0.000000
    11  N   -0.000998   0.462541  -0.035846   0.000259  -0.000002   0.000278
    12  C   -0.000042  -0.094535   0.004126  -0.000081  -0.000002  -0.000001
    13  Cl  -0.000005   0.005023  -0.000098   0.000179  -0.000038  -0.000000
    14  N    0.000013   0.000217   0.000004   0.401757  -0.056282  -0.001222
    15  C    0.000000  -0.000141  -0.000003  -0.102031   0.005248  -0.000149
    16  Cl  -0.000001   0.000950  -0.000189   0.006562  -0.000104   0.000152
    17  N   -0.063148  -0.002121   0.002756   0.000099  -0.000002   0.394956
    18  C    0.236740  -0.000366   0.001802  -0.000004   0.000001  -0.104481
    19  Cl  16.876623   0.000770  -0.000646   0.000000  -0.000000   0.006440
    20  C    0.000770   4.594374   0.392186   0.000000   0.000000  -0.000052
    21  H   -0.000646   0.392186   0.509388  -0.000000   0.000000  -0.000063
    22  C    0.000000   0.000000  -0.000000   4.658964   0.388275   0.000008
    23  H   -0.000000   0.000000   0.000000   0.388275   0.605386  -0.000018
    24  C    0.006440  -0.000052  -0.000063   0.000008  -0.000018   4.680119
    25  H   -0.000091  -0.000006  -0.000001  -0.000126  -0.000001   0.394687
    26  Co   0.011860  -0.020363  -0.001232  -0.011207  -0.000062  -0.015392
    27  C    0.000058   0.000000   0.000000  -0.000005   0.000036   0.000112
    28  C   -0.000008  -0.000000  -0.000000  -0.000000  -0.000010   0.000004
    29  O   -0.000098   0.000000   0.000000   0.000170   0.000110   0.001335
    30  C   -0.000248  -0.000000  -0.000000  -0.000001   0.000002  -0.000832
    31  H    0.000000   0.000000   0.000000  -0.000001   0.000010  -0.000000
    32  H    0.000003  -0.000000   0.000000  -0.000000  -0.000000  -0.000000
    33  H    0.000008   0.000000   0.000000  -0.000001  -0.000001   0.002937
    34  H    0.000661   0.000000  -0.000000  -0.000000   0.000000  -0.000380
    35  H   -0.000007   0.000000   0.000000  -0.000000  -0.000000  -0.000001
    36  H    0.000000   0.000000   0.000000   0.000001  -0.000000  -0.000005
    37  C    0.000555  -0.000006  -0.000001   0.000398   0.001447  -0.000318
    38  O   -0.000047   0.000000   0.000000   0.000002  -0.000056   0.000003
    39  O   -0.000755   0.000076   0.000005  -0.001250   0.001659  -0.000030
              25         26         27         28         29         30
     1  Li   0.000001   0.000884  -0.000000   0.000000   0.000003   0.000000
     2  N    0.000000   0.004151   0.000000  -0.000000   0.000000  -0.000000
     3  C    0.000000  -0.000352  -0.000000   0.000000   0.000000   0.000000
     4  Cl  -0.000000   0.000027  -0.000000  -0.000000   0.000000   0.000000
     5  N   -0.037741   0.009192   0.000053  -0.000001  -0.000112  -0.003139
     6  C    0.005692  -0.000979   0.000005  -0.000004  -0.000158  -0.000872
     7  Cl  -0.000124  -0.000119   0.000052  -0.000000  -0.000002   0.000146
     8  N   -0.000012   0.010989   0.000000  -0.000000   0.000005   0.000000
     9  C   -0.000016  -0.000915  -0.000000   0.000000   0.000000   0.000000
    10  Cl  -0.000002  -0.000217  -0.000000  -0.000000   0.000000  -0.000000
    11  N    0.000012   0.142954   0.000000  -0.000000  -0.000001  -0.000000
    12  C   -0.000000  -0.019707  -0.000000   0.000000  -0.000000   0.000000
    13  Cl  -0.000000   0.007616  -0.000000   0.000000  -0.000000  -0.000000
    14  N    0.001182   0.173592   0.000004  -0.000000  -0.000327  -0.000000
    15  C    0.001289  -0.021934   0.000000  -0.000000  -0.000013   0.000000
    16  Cl  -0.000222   0.015300   0.000000  -0.000000  -0.000000   0.000000
    17  N   -0.050057   0.172550  -0.000147   0.000002  -0.002159   0.000399
    18  C    0.004883  -0.022965  -0.000275  -0.000017   0.000747   0.000154
    19  Cl  -0.000091   0.011860   0.000058  -0.000008  -0.000098  -0.000248
    20  C   -0.000006  -0.020363   0.000000  -0.000000   0.000000  -0.000000
    21  H   -0.000001  -0.001232   0.000000  -0.000000   0.000000  -0.000000
    22  C   -0.000126  -0.011207  -0.000005  -0.000000   0.000170  -0.000001
    23  H   -0.000001  -0.000062   0.000036  -0.000010   0.000110   0.000002
    24  C    0.394687  -0.015392   0.000112   0.000004   0.001335  -0.000832
    25  H    0.554062  -0.000602   0.000003  -0.000000  -0.000197   0.000031
    26  Co  -0.000602  15.654711  -0.001745   0.001489   0.018270   0.001520
    27  C    0.000003  -0.001745   4.790098   0.342365   0.222820   0.361889
    28  C   -0.000000   0.001489   0.342365   4.813286  -0.036984  -0.040011
    29  O   -0.000197   0.018270   0.222820  -0.036984   8.109620  -0.051971
    30  C    0.000031   0.001520   0.361889  -0.040011  -0.051971   4.967261
    31  H    0.000000   0.000205  -0.027334   0.379344   0.000827   0.003744
    32  H    0.000000  -0.001126  -0.034218   0.392082   0.002378  -0.004273
    33  H   -0.000176   0.002571  -0.022758   0.003862  -0.001118   0.381649
    34  H    0.000005  -0.000425  -0.031092  -0.007236  -0.001351   0.387908
    35  H    0.000000  -0.000639  -0.025397  -0.002368   0.003167   0.366840
    36  H    0.000002  -0.000987   0.398513  -0.040849  -0.032773  -0.042888
    37  C   -0.000013  -0.041112  -0.041387  -0.056583   0.313128   0.000970
    38  O   -0.000000   0.005973  -0.028629   0.235516  -0.080957  -0.001598
    39  O   -0.000008   0.136183   0.001536   0.002035  -0.055701  -0.000027
              31         32         33         34         35         36
     1  Li   0.000000  -0.000000   0.000000  -0.000000  -0.000000  -0.000000
     2  N   -0.000000  -0.000000  -0.000000  -0.000000   0.000000  -0.000000
     3  C   -0.000000  -0.000000  -0.000000  -0.000000  -0.000000  -0.000000
     4  Cl   0.000000   0.000000   0.000000   0.000000  -0.000000   0.000000
     5  N    0.000000   0.000000   0.008036  -0.000420   0.000032  -0.000003
     6  C    0.000000  -0.000000  -0.000426   0.001439   0.000145  -0.000002
     7  Cl  -0.000000   0.000000  -0.000206   0.000720  -0.000086  -0.000000
     8  N    0.000000  -0.000000  -0.000000  -0.000000  -0.000000  -0.000000
     9  C   -0.000000  -0.000000   0.000000  -0.000000   0.000000  -0.000000
    10  Cl  -0.000000  -0.000000  -0.000000  -0.000000  -0.000000   0.000000
    11  N   -0.000000  -0.000000  -0.000000  -0.000000   0.000000  -0.000000
    12  C   -0.000000   0.000000  -0.000000  -0.000000  -0.000000  -0.000000
    13  Cl  -0.000000  -0.000000  -0.000000  -0.000000  -0.000000  -0.000000
    14  N   -0.000000   0.000000  -0.000000  -0.000000  -0.000000   0.000001
    15  C   -0.000000   0.000000   0.000000  -0.000000  -0.000000   0.000000
    16  Cl  -0.000000   0.000000  -0.000000  -0.000000  -0.000000   0.000000
    17  N    0.000000  -0.000000  -0.000099  -0.000225   0.000000  -0.000007
    18  C   -0.000000   0.000001  -0.001674   0.002372   0.000059   0.000006
    19  Cl   0.000000   0.000003   0.000008   0.000661  -0.000007   0.000000
    20  C    0.000000  -0.000000   0.000000   0.000000   0.000000   0.000000
    21  H    0.000000   0.000000   0.000000  -0.000000   0.000000   0.000000
    22  C   -0.000001  -0.000000  -0.000001  -0.000000  -0.000000   0.000001
    23  H    0.000010  -0.000000  -0.000001   0.000000  -0.000000  -0.000000
    24  C   -0.000000  -0.000000   0.002937  -0.000380  -0.000001  -0.000005
    25  H    0.000000   0.000000  -0.000176   0.000005   0.000000   0.000002
    26  Co   0.000205  -0.001126   0.002571  -0.000425  -0.000639  -0.000987
    27  C   -0.027334  -0.034218  -0.022758  -0.031092  -0.025397   0.398513
    28  C    0.379344   0.392082   0.003862  -0.007236  -0.002368  -0.040849
    29  O    0.000827   0.002378  -0.001118  -0.001351   0.003167  -0.032773
    30  C    0.003744  -0.004273   0.381649   0.387908   0.366840  -0.042888
    31  H    0.569631  -0.036855  -0.000145   0.000189  -0.000110  -0.004589
    32  H   -0.036855   0.547808   0.000134   0.001243   0.001270   0.002880
    33  H   -0.000145   0.000134   0.500236  -0.025938  -0.020554  -0.003524
    34  H    0.000189   0.001243  -0.025938   0.551149  -0.025248   0.004671
    35  H   -0.000110   0.001270  -0.020554  -0.025248   0.585889  -0.001441
    36  H   -0.004589   0.002880  -0.003524   0.004671  -0.001441   0.566054
    37  C    0.001023   0.003214  -0.000639   0.002861  -0.000045   0.003123
    38  O   -0.035549  -0.028958  -0.000065   0.001523   0.000064   0.002265
    39  O    0.000003  -0.000037   0.000011  -0.000138  -0.000000  -0.000066
              37         38         39
     1  Li   0.000001   0.000001  -0.000046
     2  N    0.000000   0.000000  -0.000000
     3  C    0.000000  -0.000000  -0.000002
     4  Cl  -0.000000   0.000000   0.000000
     5  N   -0.000011   0.000000   0.000002
     6  C    0.000003   0.000002  -0.000006
     7  Cl  -0.000004  -0.000000   0.000000
     8  N    0.000010  -0.000000   0.000012
     9  C   -0.000001  -0.000000  -0.000006
    10  Cl   0.000000   0.000000   0.000000
    11  N   -0.000003  -0.000000  -0.001456
    12  C   -0.000000  -0.000000  -0.000194
    13  Cl  -0.000009   0.000000  -0.000382
    14  N   -0.000255  -0.000000  -0.003033
    15  C    0.000007   0.000000   0.000123
    16  Cl   0.000002   0.000000   0.000012
    17  N   -0.002059  -0.000031  -0.004328
    18  C    0.002288  -0.000058  -0.000955
    19  Cl   0.000555  -0.000047  -0.000755
    20  C   -0.000006   0.000000   0.000076
    21  H   -0.000001   0.000000   0.000005
    22  C    0.000398   0.000002  -0.001250
    23  H    0.001447  -0.000056   0.001659
    24  C   -0.000318   0.000003  -0.000030
    25  H   -0.000013  -0.000000  -0.000008
    26  Co  -0.041112   0.005973   0.136183
    27  C   -0.041387  -0.028629   0.001536
    28  C   -0.056583   0.235516   0.002035
    29  O    0.313128  -0.080957  -0.055701
    30  C    0.000970  -0.001598  -0.000027
    31  H    0.001023  -0.035549   0.000003
    32  H    0.003214  -0.028958  -0.000037
[...]
 00004678,0.00002910,0.00003163,-0.00015137,-0.00012515,0.00044004,0.01
 200212,-0.02438301,-0.00871475,0.00037608,-0.00117924,0.00138557,-0.00
 230814,0.00099170,0.00102784,0.02936730,-0.05307357,-0.06410516,-0.000
 37222,-0.00016619,0.00028661,-0.00062758,0.00019699,-0.00033144,-0.011
 14299,0.02322519,0.00855624,-0.03597162,0.06011099,0.06752864,0.,0.,0.
 ,0.,0.,0.,0.00000930,0.00001352,-0.00000426,-0.00000607,-0.00001680,-0
 .00000458,0.,0.,0.,-0.00002395,0.00015592,-0.00000741,0.00003029,0.000
 00347,-0.00003576,0.,0.,0.,0.00002650,-0.00000475,0.00001297,-0.000035
 76,0.00001250,-0.00001477,-0.00001141,-0.00004743,-0.00004567,0.000013
 82,0.00002549,-0.00000136,-0.00000135,-0.00000495,-0.00000582,-0.00010
 473,0.00002362,-0.00002523,0.00001310,0.00001267,0.00005526,-0.0000033
 4,-0.00000738,-0.00002298,-0.00006319,0.00009002,-0.00010886,-0.000015
 99,0.00007731,0.00021185,0.00004481,-0.00008803,-0.00000852,-0.0000122
 8,0.00001513,0.00004348,-0.00000206,0.00000109,0.00000051,0.00007003,-
 0.00003965,-0.00000769,0.00001757,-0.00000475,-0.00002799,0.00009434,-
 0.00011925,-0.00006047,0.00001365,-0.00000083,0.00003012,0.00017543,0.
 00010579,0.00037390,-0.01317669,-0.01332671,-0.01081622,-0.00034901,0.
 00009065,-0.00014650,-0.00372362,-0.00419437,0.00438493,-0.17848891,-0
 .12292507,-0.05670257,0.00004543,-0.00001432,0.00011067,0.00039604,-0.
 00000994,0.00015788,-0.00894861,-0.00875890,-0.00243301,0.01260007,0.0
 1007237,0.00447612,0.19156022,0.,0.,0.,0.,0.,0.,0.00000486,0.00001032,
 0.00000308,-0.00000619,-0.00001493,-0.00000210,0.,0.,0.,-0.00023888,-0
 .00027021,0.00001049,0.00006016,0.00004082,0.00005187,0.,0.,0.,0.00001
 381,-0.00000105,0.00001020,-0.00001463,0.00000431,-0.00000517,-0.00001
 701,-0.00003360,-0.00001117,0.00001402,0.00000815,-0.00001995,-0.00000
 500,-0.00000163,0.00000648,-0.00004327,0.00000967,0.00000900,0.0000120
 4,-0.00000004,0.00001625,-0.00000437,-0.00000248,-0.00000375,0.0001335
 6,-0.00009306,0.00000422,-0.00003250,-0.00001592,-0.00030563,-0.000036
 97,0.00009724,-0.00000650,0.00000182,0.00002233,0.00001804,0.00000367,
 0.00000517,0.00000675,0.00001497,-0.00001699,-0.00001577,0.00000463,0.
 00000322,-0.00000805,-0.00005356,0.00006382,0.00012820,-0.00000991,-0.
 00000405,-0.00002458,0.00013932,0.00006982,-0.00000564,-0.00151684,-0.
 00457903,-0.00163840,-0.00052484,-0.00005176,-0.00050911,-0.00059387,0
 .00094697,0.00108167,-0.12395706,-0.16523576,-0.05597690,0.00017697,-0
 .00001799,0.00007515,0.00029753,-0.00035303,0.00040800,0.00961566,0.00
 918407,0.00254254,-0.02013496,-0.01591476,-0.00715319,0.13615289,0.174
 39341,0.,0.,0.,0.,0.,0.,0.00000024,0.00000775,0.00000915,-0.00000664,-
 0.00001342,-0.00000089,0.,0.,0.,-0.00079735,-0.00017029,-0.00005247,0.
 00016615,0.00008204,0.00004732,0.,0.,0.,0.00001463,0.00000175,0.000019
 23,-0.00000649,0.00000229,-0.00000007,-0.00002376,-0.00002894,0.000024
 15,0.00001313,-0.00000982,-0.00003475,-0.00000630,0.00000089,0.0000159
 7,-0.00003138,0.00000472,0.00005196,0.00003547,-0.00001741,-0.00000659
 ,-0.00001107,0.00000490,0.00001699,-0.00006986,-0.00014810,0.00019651,
 0.00016068,0.00024791,-0.00029578,0.00001828,-0.00005653,0.00005397,0.
 00001701,0.00002991,-0.00000544,0.00000579,0.00001336,0.00001198,-0.00
 002200,-0.00000813,-0.00006342,-0.00001212,-0.00000081,0.00002145,0.00
 034071,0.00021757,-0.00010855,0.00000921,-0.00000123,0.00000921,0.0001
 1496,0.00008910,-0.00042224,0.01444707,0.01629472,0.00838315,-0.000079
 45,0.00025440,0.00110821,0.00547151,0.00411477,-0.00353328,-0.05931314
 ,-0.05714541,-0.07625306,-0.00006513,-0.00007238,0.00003343,-0.0003431
 3,0.00000879,-0.00013551,-0.01694141,-0.01926386,-0.00545375,-0.005398
 29,-0.00334016,-0.00303280,0.06189751,0.06120374,0.07770204,0.,0.,0.,0
 .,0.,0.,0.00000593,0.00000380,-0.00000831,-0.00000143,-0.00000683,-0.0
 0000312,0.,0.,0.,-0.00006678,0.00011225,0.00003415,0.00011952,0.000022
 55,-0.00000543,0.,0.,0.,-0.00002428,0.00001171,0.00001901,-0.00001043,
 0.00000472,-0.00000275,-0.00000206,-0.00002569,-0.00005358,0.00000806,
 0.00002573,0.00001442,-0.00000061,-0.00000576,-0.00001321,-0.00011118,
 0.00005848,-0.00003447,0.00003768,0.00000061,0.00005871,-0.00000052,0.
 00000169,-0.00000379,0.00014237,0.00007847,-0.00025633,-0.00020659,-0.
 00003871,0.00014053,0.00003257,-0.00001373,-0.00000906,-0.00001879,0.0
 0000051,0.00004048,-0.00000429,-0.00000309,-0.00000466,0.00006433,-0.0
 0003413,-0.00006201,0.00001692,-0.00004014,-0.00000174,-0.00000143,-0.
 00017124,0.00007202,0.00000780,0.00000015,-0.00000201,0.00030350,0.000
 06662,0.00063391,-0.10995144,0.11872217,0.03647853,-0.00193119,0.00710
 504,0.00498113,0.00642507,-0.03472417,-0.00818048,-0.00897875,0.019586
 73,0.00705330,0.00108914,-0.00021693,-0.00006714,-0.00021575,0.0001746
 5,-0.00066520,0.00078019,-0.00048522,-0.00005802,-0.00196339,-0.001595
 44,0.00365992,0.00068610,-0.00010955,-0.00068596,0.11705756,0.,0.,0.,0
 .,0.,0.,0.00001022,0.00001286,-0.00000541,-0.00000624,-0.00001787,-0.0
 0000453,0.,0.,0.,-0.00005474,0.00003530,0.00002199,0.00006876,0.000015
 24,-0.00000887,0.,0.,0.,-0.00002018,0.00001520,0.00003081,-0.00001993,
 0.00000896,-0.00000482,-0.00002425,-0.00004977,-0.00006508,0.00001971,
 0.00003137,-0.00000273,-0.00000412,-0.00000572,-0.00000632,-0.00016025
 ,0.00008753,-0.00001507,0.00006024,-0.00000610,0.00007232,-0.00000562,
 0.00000469,0.00000364,0.00009705,0.00005943,-0.00021152,-0.00014888,-0
 .00003735,0.00006196,0.00001369,0.00001281,-0.00002338,-0.00001530,0.0
 0001610,0.00005118,-0.00000048,-0.00000128,0.00000046,0.00006235,-0.00
 005214,-0.00010914,0.00001079,-0.00005682,-0.00001025,0.00002588,-0.00
 013036,0.00006978,-0.00000539,-0.00000185,-0.00000809,0.00040802,0.000
 06840,0.00060482,0.10532876,-0.24973578,-0.06423132,0.00629372,-0.0094
 5482,-0.00326575,-0.00035126,-0.02154515,-0.00472452,-0.00235375,0.008
 09226,0.00224511,-0.00038184,0.00093972,0.00014758,0.00002777,-0.00090
 820,0.00111499,0.00024468,0.00020610,-0.00024005,-0.00125841,0.0007222
 8,0.00166233,0.00072416,0.00034733,-0.00051690,-0.10748479,0.27321494,
 0.,0.,0.,0.,0.,0.,0.00000251,0.00000408,0.00000096,-0.00000319,-0.0000
 0715,-0.00000082,0.,0.,0.,0.00007051,-0.00002822,-0.00000969,-0.000079
 28,-0.00001130,-0.00001375,0.,0.,0.,-0.00000652,0.00000041,0.00001130,
 -0.00000913,0.00000575,-0.00000449,-0.00001463,-0.00001565,-0.00001148
 ,0.00000735,0.00000314,-0.00000965,-0.00000416,-0.00000044,0.00000325,
 -0.00005551,0.00004429,-0.00000909,0.00002152,-0.00001107,0.00000683,-
 0.00000578,0.00000279,0.00000179,-0.00003081,-0.00002039,-0.00002208,-
 0.00003879,0.00004050,-0.00007233,-0.00002511,0.00003246,-0.00000367,0
 .00000182,0.00001103,0.00000706,0.00000373,0.00000234,0.00000411,0.000
 04546,-0.00001663,0.00000433,0.00000693,-0.00000724,0.00000747,0.00002
 722,-0.00004866,0.00006023,-0.00003286,-0.00002160,-0.00003132,0.00021
 469,0.00004743,0.00010217,0.03546422,-0.06233680,-0.07507519,-0.009835
 70,0.02096671,0.00850649,0.00001680,-0.01711491,-0.00107732,0.01237859
 ,-0.02077412,-0.00580965,0.00051603,0.00005664,0.00125903,-0.00099431,
 0.00084774,-0.00149432,-0.00078459,-0.00028913,0.00070045,0.00345638,0
 .00142102,-0.00274972,-0.00022394,0.00038436,0.00109632,-0.03757812,0.
 06967630,0.08039106,0.,0.,0.,0.,0.,0.,-0.00037774,-0.00047623,0.000221
 28,0.00023548,0.00067705,0.00016506,0.,0.,0.,0.00092567,-0.00152376,0.
 00038368,-0.00127887,-0.00025364,0.00019041,0.,0.,0.,-0.00052603,0.000
 04205,-0.00062886,0.00121827,-0.00039135,0.00049414,0.00054151,0.00202
 799,0.00185496,-0.00062633,-0.00113419,0.00017998,0.00008020,0.0002135
 6,0.00020949,0.00416359,-0.00133339,0.00193890,-0.00047189,-0.00054562
 ,-0.00235997,0.00007703,0.00027111,0.00088512,-0.00220968,-0.00306197,
 0.00551261,0.00373141,-0.00094528,-0.00028185,-0.00129118,0.00064688,-
 0.00005100,0.00049945,-0.00061998,-0.00195618,0.00007770,-0.00001186,0
 .00001382,-0.00292309,0.00127519,-0.00006508,-0.00107399,0.00082178,0.
 00103047,0.00001975,0.00414337,-0.00163770,0.00007538,0.00013243,0.000
 00181,-0.01116224,-0.00559983,-0.02302357,0.00713968,-0.02254741,0.017
 25893,-0.03268771,-0.04173915,-0.01600845,-0.10808226,0.03932105,-0.04
 805082,-0.00584132,-0.00475952,-0.00545577,0.00212074,0.00909555,0.001
 28350,0.00075860,0.00009459,-0.00192979,0.00091517,0.00105966,-0.00054
 919,-0.00069242,0.00031316,0.00175352,-0.00180513,0.00013812,0.0016802
 8,-0.00289529,-0.00082788,-0.00308948,0.58867878,0.,0.,0.,0.,0.,0.,-0.
 00053684,-0.00063166,0.00034299,0.00026816,0.00082957,0.00023738,0.,0.
 ,0.,0.00071638,-0.00110451,0.00071124,-0.00105897,-0.00043683,0.000107
 57,0.,0.,0.,0.00028765,-0.00027388,-0.00148484,0.00093589,-0.00030064,
 0.00027134,0.00094200,0.00205086,0.00290031,-0.00074503,-0.00163354,-0
 .00018079,0.00006937,0.00029053,0.00048207,0.00582472,-0.00361323,0.00
 300168,-0.00161599,-0.00040430,-0.00270305,0.00011833,-0.00006446,0.00
 028738,-0.00287528,-0.00567404,0.00427994,0.00200545,0.00328998,-0.002
 30920,-0.00034138,-0.00134747,0.00168197,0.00077075,-0.00072996,-0.002
 70129,0.00002281,0.00014569,0.00002166,-0.00216837,0.00151232,0.002842
 02,0.00043419,0.00211546,-0.00031725,0.00016636,0.00269865,-0.00093617
 ,0.00051103,0.00015765,0.00074726,-0.01494211,0.00489043,-0.03100570,-
 0.04237145,-0.06479383,-0.01821593,-0.02504395,-0.00101440,-0.02896218
 ,0.01262339,-0.26925346,0.07326610,0.00547338,0.00455269,0.00551270,-0
 .00175824,-0.00533512,-0.00051467,-0.00055477,-0.00695601,0.00079320,-
 0.00055393,-0.00063153,0.00154053,-0.00009517,-0.00016741,0.00015190,0
 .00318550,0.00096243,-0.00203113,0.00047398,0.00087288,0.00270082,0.27
 086297,0.92497337,0.,0.,0.,0.,0.,0.,-0.00020198,-0.00028572,0.00006581
 ,0.00018831,0.00047204,0.00007084,0.,0.,0.,0.00145667,-0.00014603,-0.0
 0043681,-0.00129666,-0.00024396,0.00030395,0.,0.,0.,-0.00031136,-0.000
 14969,-0.00058510,0.00075921,-0.00025609,0.00026880,0.00029234,0.00138
 217,0.00050613,-0.00055200,-0.00054519,0.00056399,0.00018951,0.0002035
 6,-0.00011690,0.00332841,-0.00074748,0.00043229,-0.00074103,-0.0001751
 1,-0.00168034,0.00013856,0.00011774,0.00037450,-0.00162511,-0.00047603
 ,0.00440455,0.00370902,-0.00094250,-0.00050879,-0.00047346,0.00020571,
 -0.00016773,0.00009236,-0.00058488,-0.00101907,-0.00001806,-0.00010725
 ,-0.00009922,-0.00141123,0.00122085,0.00133276,-0.00007572,0.00013861,
 0.00082480,-0.00020075,0.00303790,-0.00145637,-0.00002539,0.00000559,-
 0.00004901,-0.01280386,-0.01042195,-0.01394830,0.02031682,0.00191865,0
 .01396267,-0.02365768,-0.04301937,-0.01492612,-0.03592879,0.09615800,-
 0.12843632,-0.00351306,0.00052554,-0.00298128,-0.00044269,0.00446771,0
 .00027104,0.00267109,0.00703231,-0.00140575,0.00077317,0.00076365,-0.0
 0057632,0.00079314,-0.00010293,0.00127537,-0.00108042,-0.00079137,0.00
 087034,-0.00664129,-0.00363439,-0.00573582,0.28554274,0.06878201,0.494
 73368,0.,0.,0.,0.,0.,0.,0.00019712,0.00023954,-0.00012273,-0.00013543,
 -0.00037611,-0.00008555,0.,0.,0.,-0.00070767,0.00048254,0.00006061,0.0
 0079455,0.00014863,-0.00014274,0.,0.,0.,0.00027092,0.00004741,0.000448
 42,-0.00056756,0.00017759,-0.00021155,-0.00032307,-0.00112066,-0.00110
 073,0.00039770,0.00062317,-0.00019984,-0.00006548,-0.00011537,-0.00005
 207,-0.00221594,0.00081370,-0.00062343,0.00045317,0.00023028,0.0011633
 6,-0.00004647,-0.00010685,-0.00034600,0.00097657,0.00126531,-0.0029087
 1,-0.00192057,0.00064761,0.00011914,0.00055567,-0.00031551,0.00013997,
 -0.00031323,0.00035450,0.00103620,-0.00003706,0.00002224,0.00000138,0.
 00109699,-0.00078860,-0.00071437,0.00014682,-0.00020797,-0.00031626,0.
 00009541,-0.00210295,0.00080691,0.00003414,-0.00003767,0.00008100,0.00
 521323,0.00064377,0.00973581,-0.01267024,-0.00949194,-0.00887479,-0.08
 099111,-0.04112280,-0.01119206,-0.00479384,0.03870113,-0.04169663,0.00
 228148,0.00120365,0.00273094,0.00687687,-0.00024722,-0.00285982,-0.006
 92044,-0.04156915,-0.00764006,-0.00039474,-0.00045200,0.00062393,0.000
 04438,-0.00009397,-0.00093369,0.00119811,0.00040327,-0.00053814,0.0006
 4693,0.00074673,0.00067161,-0.18182237,0.03124968,-0.12504554,0.312779
 65,0.,0.,0.,0.,0.,0.,0.00012165,0.00015567,-0.00006729,-0.00006446,-0.
 00019197,-0.00005624,0.,0.,0.,-0.00022756,0.00008365,-0.00001085,0.000
 30690,0.00011771,-0.00004916,0.,0.,0.,0.00001717,0.00003818,0.00028706
 ,-0.00026360,0.00008579,-0.00008596,-0.00019824,-0.00046190,-0.0007798
 3,0.00018183,0.00037113,0.00005119,-0.00001776,-0.00006094,-0.00010350
 ,-0.00131731,0.00076138,-0.00064198,0.00032745,0.00011755,0.00061545,-
 0.00002499,-0.00000435,-0.00010787,0.00077058,0.00101728,-0.00095826,-
 0.00043024,-0.00067828,0.00041936,-0.00006097,0.00035816,-0.00032868,-
 0.00020468,0.00014334,0.00057738,-0.00000835,-0.00002995,-0.00000481,0
 .00059290,-0.00038155,-0.00050748,0.00002661,-0.00034406,-0.00002558,-
 0.00007773,-0.00063954,0.00034647,-0.00009722,-0.00004163,-0.00012914,
 0.00218043,-0.00111241,0.00654438,0.00184905,-0.04662026,0.00582906,-0
 .01702633,-0.18428988,-0.00290488,0.02058811,-0.02041702,0.03554887,0.
 00215702,-0.00070264,0.00156838,-0.00918006,-0.02317917,-0.00715846,-0
 .00558157,-0.00730228,-0.00045879,-0.00087389,0.00042541,0.00033834,-0
 .00079689,0.00041154,0.00016320,0.00007684,0.00037173,-0.00045983,0.00
 103608,-0.00095954,0.00563678,0.00250012,-0.11851398,0.01412071,0.0511
 8095,0.40048707,0.,0.,0.,0.,0.,0.,0.00016452,0.00020738,-0.00008979,-0
 .00012679,-0.00033233,-0.00006191,0.,0.,0.,-0.00065460,0.00016581,0.00
 015243,0.00060366,0.00011600,-0.00013129,0.,0.,0.,0.00025333,0.0000405
 3,0.00032001,-0.00051090,0.00015772,-0.00018148,-0.00023567,-0.0009560
 6,-0.00081138,0.00040850,0.00051737,-0.00030037,-0.00010068,-0.0001215
 8,0.00002881,-0.00199631,0.00057221,-0.00063052,0.00038139,0.00023186,
 0.00103044,-0.00005665,-0.00009081,-0.00027646,0.00076321,0.00067606,-
 0.00175852,-0.00106192,0.00030296,0.00007581,0.00024610,-0.00015942,-0
 .00002562,-0.00021180,0.00033744,0.00084889,-0.00001004,0.00003160,0.0
 0003035,0.00093576,-0.00073317,-0.00056556,0.00010618,-0.00012455,-0.0
 0046072,0.00010392,-0.00122841,0.00053495,0.00004773,-0.00002008,0.000
 10034,0.00328735,0.00126873,0.00756262,-0.00806175,0.01165048,-0.00388
 364,-0.01532736,-0.02330572,-0.08224729,-0.03746883,0.04880829,-0.0224
 3742,0.00173641,0.00017652,0.00080293,-0.01611310,-0.03680971,-0.00018
 344,-0.00455820,-0.00986090,0.00133224,-0.00036689,-0.00061722,0.00043
 941,-0.00029485,-0.00002227,-0.00038123,0.00046383,0.00035548,-0.00041
 227,0.00015147,0.00113706,-0.00092010,-0.11767578,0.04537712,-0.197222
 12,0.23738399,-0.01136779,0.32059855,0.,0.,0.,0.,0.,0.,0.00032716,0.00
 032153,-0.00032538,-0.00017726,-0.00051568,-0.00012655,0.,0.,0.,-0.000
 14241,0.00062484,-0.00028132,0.00067470,0.00016940,-0.00007853,0.,0.,0
 .,0.00009500,0.00002752,0.00046074,-0.00106726,0.00031066,-0.00033687,
 0.00034519,-0.00166340,-0.00246440,0.00042188,0.00109691,0.00002700,-0
 .00013882,-0.00032123,-0.00019803,-0.00581285,0.00181634,-0.00522170,0
 .00053364,0.00095263,0.00271929,-0.00012739,-0.00015653,-0.00065859,0.
 00236457,0.00110135,-0.00131531,-0.00181069,0.00105608,-0.00046416,0.0
 0032557,-0.00031955,0.00062263,-0.00053003,0.00025732,0.00172094,-0.00
 008116,-0.00002869,-0.00005716,0.00240040,-0.00119539,-0.00078738,-0.0
 0006576,-0.00097894,-0.00067945,-0.00009683,-0.00177179,0.00106956,-0.
 00009567,-0.00016320,-0.00002265,-0.01214459,0.00160053,-0.00768512,0.
 00563197,0.00196466,-0.00202804,0.00272304,0.01127603,-0.00458631,0.01
 564481,-0.02739066,0.00464305,0.00070447,0.00020909,0.00017079,-0.0013
 0012,-0.00349652,-0.00031230,-0.00069127,-0.00176310,-0.00024771,-0.00
 016462,-0.00020834,-0.00009955,-0.00010630,-0.00000019,-0.00035111,-0.
 00014250,0.00002450,-0.00004764,-0.00109751,-0.00100413,-0.00005294,-0
 .25492839,-0.24189952,-0.10428698,-0.04028482,-0.04739302,-0.04186567,
 0.28922368,0.,0.,0.,0.,0.,0.,0.00042325,0.00039319,-0.00035383,-0.0002
 2438,-0.00065626,-0.00016073,0.,0.,0.,-0.00052877,0.00024261,-0.000067
 34,0.00065414,0.00024015,-0.00009011,0.,0.,0.,0.00003071,0.00015296,0.
 00086964,-0.00046189,0.00012707,-0.00013082,-0.00152716,-0.00200683,-0
 .00406001,0.00096388,0.00146516,-0.00016022,-0.00025422,-0.00029747,-0
 .00015271,-0.00199925,0.00244963,-0.00008925,0.00106687,0.00010430,0.0
 0099892,-0.00007376,0.00008052,-0.00008368,0.00100907,0.00309914,-0.00
 079594,-0.00083943,-0.00161211,0.00095229,0.00053202,0.00071925,-0.001
 02447,-0.00094333,0.00051362,0.00222940,-0.00007656,-0.00006719,-0.000
 04992,0.00071584,-0.00081509,-0.00189859,-0.00019988,-0.00082154,0.000
 31186,0.00019741,-0.00117762,0.00061651,-0.00018220,-0.00003645,-0.000
 24544,0.00549687,-0.00811797,0.01087932,0.01531656,0.00470340,0.009409
 81,0.00022719,0.00611535,0.00120467,-0.04085417,-0.09020804,-0.0063857
 4,-0.00208823,-0.00251029,-0.00234813,-0.00029278,-0.00098348,-0.00013
 952,-0.00057126,-0.00088691,-0.00063447,0.00009745,0.00007341,-0.00050
 879,-0.00020239,0.00011700,-0.00014930,-0.00121148,-0.00000396,0.00106
 587,-0.00262675,-0.00190304,-0.00124954,-0.24693849,-0.46276749,-0.136
 97548,-0.03143543,0.00010918,-0.02656114,0.30688015,0.55314358,0.,0.,0
 .,0.,0.,0.,0.00023564,0.00009709,-0.00020040,-0.00023562,-0.00061065,-
 0.00008745,0.,0.,0.,-0.00109793,0.00144808,-0.00037710,0.00115247,0.00
 024986,-0.00022307,0.,0.,0.,-0.00005787,0.00050246,0.00136583,-0.00068
 096,0.00025035,-0.00018462,-0.00155255,-0.00221995,-0.00178759,0.00116
 329,0.00092448,-0.00174182,-0.00034853,-0.00012973,0.00052896,-0.00546
 732,0.00207232,-0.00150249,0.00158577,0.00006722,0.00220946,-0.0002538
 1,0.00001534,-0.00018037,0.00110894,0.00424102,-0.00866854,-0.00383133
 ,0.00020862,0.00087707,0.00108976,-0.00044097,-0.00053165,-0.00045148,
 0.00074351,0.00187554,-0.00002308,0.00008185,0.00007422,0.00102542,-0.
 00193180,-0.00348239,-0.00002519,0.00016007,0.00023056,0.00050739,-0.0
 0407779,0.00103490,-0.00012343,-0.00007808,-0.00020721,-0.01002400,0.0
 0222719,-0.03193017,-0.00254019,0.00373940,0.00274192,-0.00349056,0.01
 185789,0.00064283,0.00606964,0.00056042,0.02251454,-0.00033525,-0.0013
 9996,-0.00045879,-0.00008723,-0.00154666,-0.00017217,-0.00082402,-0.00
 337040,-0.00052315,-0.00009547,-0.00026518,-0.00018851,-0.00012653,0.0
 0008030,-0.00055691,-0.00029004,0.00010186,0.00037800,0.00105413,0.000
 21860,0.00090442,-0.10012639,-0.12670241,-0.14994548,-0.04844173,-0.04
 541679,-0.02012817,0.16487012,0.15693355,0.18867217\\0.,0.,0.,0.,0.,0.
 ,0.00000027,-0.00000015,-0.00000048,-0.00000004,0.00000002,0.00000006,
 0.,0.,0.,-0.00000058,-0.00000058,0.00000049,0.00000032,0.00000011,-0.0
 0000014,0.,0.,0.,-0.00000056,0.00000004,-0.00000033,-0.00000011,0.0000
 0004,-0.00000006,0.00000014,-0.00000047,-0.00000060,0.00000003,0.00000
 017,-0.00000015,-0.00000007,0.00000005,0.00000022,0.00000020,-0.000000
 19,-0.00000023,0.00000025,-0.00000012,-0.00000022,-0.00000003,0.000000
 03,0.00000003,-0.00000004,-0.00000049,0.00000032,-0.00000015,0.0000007
 5,-0.00000038,0.00000007,-0.00000014,0.00000005,-0.00000039,0.00000031
 ,0.00000093,0.00000022,0.00000015,-0.00000026,0.00000025,0.,0.00000051
 ,0.00000004,0.00000002,0.00000003,0.00000094,0.00000030,-0.00000038,-0
 .00000035,0.00000006,0.00000006,0.00000015,0.00000019,-0.00000005,-0.0
 0000025,0.00000060,0.00000024,0.00000031,0.00000028,0.00000040,0.00000
 004,-0.00000047,0.00000013,-0.00000010,-0.00000026,-0.00000067,0.00000
 010,-0.00000003,-0.00000027,-0.00000009,0.00000002,0.00000004,0.000000
 16,-0.00000018,0.00000040,-0.00000011,0.00000011,0.,0.00000012,0.00000
 024,0.00000018,0.00000016,-0.00000024,-0.00000009,-0.00000081,-0.00000
 038,-0.00000069,0.,-0.00000027,0.,0.00000045,0.00000056,0.00000035\\\@


 YOU CAN LEAD A BOY TO COLLEGE....
 BUT YOU CANNOT MAKE HIM THINK....
           ELBERT HUBBARD
 Job cpu time:       1 days  3 hours 46 minutes 11.1 seconds.
 Elapsed time:       0 days  0 hours 26 minutes  4.4 seconds.
 File lengths (MBytes):  RWF=   2289 Int=      0 D2E=      0 Chk=     27 Scr=      1
 Normal termination of Gaussian 16 at Tue Jan 21 18:54:01 2020.
