 Entering Gaussian System, Link 0=g16
 Input=Co_PO_opt_freq4.com
 Output=Co_PO_opt_freq4.log
 Initial command:
 /apps/commercial/G16/g16.linda/l1.exe "/scratch/x1711a05/Gau-4042.inp" -scrdir="/scratch/x1711a05/"
 Default linda workers: node6705
 Entering Link 1 = /apps/commercial/G16/g16.linda/l1.exe PID=      4043.
  
 Copyright (c) 1988,1990,1992,1993,1995,1998,2003,2009,2016,
            Gaussian, Inc.  All Rights Reserved.
  
 This is part of the Gaussian(R) 16 program.  It is based on
 the Gaussian(R) 09 system (copyright 2009, Gaussian, Inc.),
 the Gaussian(R) 03 system (copyright 2003, Gaussian, Inc.),
 the Gaussian(R) 98 system (copyright 1998, Gaussian, Inc.),
 the Gaussian(R) 94 system (copyright 1995, Gaussian, Inc.),
 the Gaussian 92(TM) system (copyright 1992, Gaussian, Inc.),
 the Gaussian 90(TM) system (copyright 1990, Gaussian, Inc.),
 the Gaussian 88(TM) system (copyright 1988, Gaussian, Inc.),
 the Gaussian 86(TM) system (copyright 1986, Carnegie Mellon
 University), and the Gaussian 82(TM) system (copyright 1983,
 Carnegie Mellon University). Gaussian is a federally registered
 trademark of Gaussian, Inc.
  
 This software contains proprietary and confidential information,
 including trade secrets, belonging to Gaussian, Inc.
  
 This software is provided under written license and may be
 used, copied, transmitted, or stored only in accord with that
 written license.
  
 The following legend is applicable only to US Government
 contracts under FAR:
  
                    RESTRICTED RIGHTS LEGEND
  
 Use, reproduction and disclosure by the US Government is
 subject to restrictions as set forth in subparagraphs (a)
 and (c) of the Commercial Computer Software - Restricted
 Rights clause in FAR 52.227-19.
  
 Gaussian, Inc.
 340 Quinnipiac St., Bldg. 40, Wallingford CT 06492
  
  
 ---------------------------------------------------------------
 Warning -- This program may not be used in any manner that
 competes with the business of Gaussian, Inc. or will provide
 assistance to any competitor of Gaussian, Inc.  The licensee
 of this program is prohibited from giving any competitor of
 Gaussian, Inc. access to this program.  By using this program,
 the user acknowledges that Gaussian, Inc. is engaged in the
 business of creating and licensing software in the field of
 computational chemistry and represents and warrants to the
 licensee that it is not a competitor of Gaussian, Inc. and that
 it will not use this program in any manner prohibited above.
 ---------------------------------------------------------------
  

 Cite this work as:
 Gaussian 16, Revision A.03,
 M. J. Frisch, G. W. Trucks, H. B. Schlegel, G. E. Scuseria, 
 M. A. Robb, J. R. Cheeseman, G. Scalmani, V. Barone, 
 G. A. Petersson, H. Nakatsuji, X. Li, M. Caricato, A. V. Marenich, 
 J. Bloino, B. G. Janesko, R. Gomperts, B. Mennucci, H. P. Hratchian, 
 J. V. Ortiz, A. F. Izmaylov, J. L. Sonnenberg, D. Williams-Young, 
 F. Ding, F. Lipparini, F. Egidi, J. Goings, B. Peng, A. Petrone, 
 T. Henderson, D. Ranasinghe, V. G. Zakrzewski, J. Gao, N. Rega, 
 G. Zheng, W. Liang, M. Hada, M. Ehara, K. Toyota, R. Fukuda, 
 J. Hasegawa, M. Ishida, T. Nakajima, Y. Honda, O. Kitao, H. Nakai, 
 T. Vreven, K. Throssell, J. A. Montgomery, Jr., J. E. Peralta, 
 F. Ogliaro, M. J. Bearpark, J. J. Heyd, E. N. Brothers, K. N. Kudin, 
 V. N. Staroverov, T. A. Keith, R. Kobayashi, J. Normand, 
 K. Raghavachari, A. P. Rendell, J. C. Burant, S. S. Iyengar, 
 J. Tomasi, M. Cossi, J. M. Millam, M. Klene, C. Adamo, R. Cammi, 
 J. W. Ochterski, R. L. Martin, K. Morokuma, O. Farkas, 
 J. B. Foresman, and D. J. Fox, Gaussian, Inc., Wallingford CT, 2016.
 
 ******************************************
 Gaussian 16:  ES64L-G16RevA.03 25-Dec-2016
                 5-Oct-2019 
 ******************************************
 %nprocshared=64
 Will use up to   64 processors via shared memory.
 %mem=64GB
 %chk=Co_PO_opt_freq4.chk
 SetLPE:    new flags="-opt 'Tsnet.Node.lindarsharg: ssh'  -nodelist 'node6705' -env GAUSS_MDEF=8589934592 -env GAUSS_EXEDIR="/apps/commercial/G16/g16.linda""
 Will use up to    1 processors via Linda.
 ----------------------------------------------------------------------
 # opt=(calcall,tight,cartesian) freq cam-b3lyp/gen nosymm scf=(qc,maxc
 ycle=1024,vshift=100) pseudo=read
 ----------------------------------------------------------------------
 1/7=10,10=4,18=10,26=3,38=1/1,3;
 2/12=2,15=1,17=6,18=5,29=2,40=1/2;
 3/5=7,11=2,16=1,17=8,25=1,30=1,71=2,74=-40,140=1/1,2,3;
 4//1;
 5/5=2,7=1024,8=3,10=100,38=5/8;
 8/6=4,10=90,11=11/1;
 11/6=1,8=1,9=11,15=111,16=1,31=1/1,2,10;
 10/6=1,31=1/2;
 6/7=2,8=2,9=2,10=2,18=1,28=1/1;
 7/7=1,10=1,25=1,30=1/1,2,3,16;
 1/7=10,10=4,18=10,26=3/3(3);
 2/15=1,29=1/2;
 7/7=1,8=1,9=1,25=1,30=1,44=-1/16;
 99/12=1/99;
 2/15=1,29=1/2;
 3/5=7,6=1,11=2,16=1,17=8,25=1,30=1,71=2,74=-40,82=7,140=1/1,2,3;
 4/5=5,16=3,69=1/1;
 5/5=2,7=1024,8=3,10=100,38=5/8;
 8/6=4,10=90,11=11/1;
 11/6=1,8=1,9=11,15=111,16=1,31=1/1,2,10;
 10/6=1,31=1/2;
 7/7=1,10=1,25=1,30=1/1,2,3,16;
 1/7=10,10=4,18=10,26=3/3(-8);
 2/15=1,29=1/2;
 6/7=2,8=2,9=2,10=2,18=1,19=2,28=1/1;
 7/7=1,8=1,9=1,25=1,30=1,44=-1/16;
 99/12=1/99;
 ---------------
 Co_PO_opt_freq4
 ---------------
 Symbolic Z-matrix:
 Charge =  0 Multiplicity = 4
 Li                   -1   -0.65876  -5.04605  -3.46452 
 N                    -1   -0.32836  -3.61409  -2.2819 
 C                    0    -0.90626  -4.01673  -1.11214 
 Cl                   0    -1.57714  -5.61513  -1.03292 
 N                    -1    2.25851   2.61269  -2.48314 
 C                    0     3.18854   1.64446  -2.31265 
 Cl                   0     4.7936    1.77059  -2.93429 
 N                    -1   -3.37906   2.02857   1.06405 
 C                    0    -3.73295   1.76261  -0.21788 
 Cl                   0    -5.25182   2.24193  -0.88112 
 N                    0    -0.21893  -1.95279  -0.79155 
 C                    0    -0.84704  -3.0103   -0.19461 
 Cl                   0    -1.41481  -2.97062   1.41844 
 N                    0    -1.70861   0.9106    0.04365 
 C                    0    -2.7277    1.08222  -0.85099 
 Cl                   0    -2.62351   0.49205  -2.46867 
 N                    0     1.35408   0.90842  -1.30988 
 C                    0     2.65563   0.6019   -1.60018 
 Cl                   0     3.38552  -0.88756  -1.10615 
 C                    0     0.06764  -2.36199  -2.03157 
 H                    0     0.57049  -1.7313   -2.75049 
 C                    0    -2.17311   1.50633   1.1758 
 H                    0    -1.58734   1.52828   2.08503 
 C                    0     1.18623   2.13532  -1.87477 
 H                    0     0.24096   2.6588   -1.81815 
 Co                   0    -0.00613  -0.01163  -0.20444 
 C                    0     1.87325  -0.68053   2.30457 
 C                    0     1.92306   0.77067   2.11917 
 O                    0     0.73795   0.02803   1.74109 
 C                    0     1.62143  -1.31497   3.63785 
 H                    0     2.47227   1.19194   1.28215 
 H                    0     1.76208   1.42329   2.97247 
 H                    0     1.03709  -2.23064   3.52003 
 H                    0     1.07554  -0.63453   4.29467 
 H                    0     2.57299  -1.57353   4.11072 
 H                    0     2.39482  -1.28219   1.56381 
 

 GradGradGradGradGradGradGradGradGradGradGradGradGradGradGradGradGradGrad
 Berny optimization.
 Initialization pass.
 No Z-matrix variables, so optimization will use Cartesian coordinates.
 Trust Radius=3.00D-01 FncErr=1.00D-07 GrdErr=1.00D-06 EigMax=2.50D+02 EigMin=1.00D-04
 Number of steps in this run=    118 maximum allowed number of steps=    216.
 GradGradGradGradGradGradGradGradGradGradGradGradGradGradGradGradGradGrad

 ---------------------------------------------------------------------------------------------------
                            Z-MATRIX (ANGSTROMS AND DEGREES)
   CD    Cent   Atom    N1       Length/X        N2       Alpha/Y        N3        Beta/Z          J
 ---------------------------------------------------------------------------------------------------
      1      1  Li      -1  -0.658759         -5.046055         -3.464522
      2      2  N       -1  -0.328360         -3.614087         -2.281904
      3      3  C        0  -0.906263         -4.016726         -1.112143
      4      4  Cl       0  -1.577138         -5.615129         -1.032924
      5      5  N       -1   2.258511          2.612686         -2.483143
      6      6  C        0   3.188540          1.644460         -2.312649
      7      7  Cl       0   4.793597          1.770585         -2.934288
      8      8  N       -1  -3.379063          2.028570          1.064048
      9      9  C        0  -3.732950          1.762614         -0.217884
     10     10  Cl       0  -5.251816          2.241925         -0.881119
     11     11  N        0  -0.218929         -1.952793         -0.791554
     12     12  C        0  -0.847042         -3.010305         -0.194609
     13     13  Cl       0  -1.414808         -2.970619          1.418439
     14     14  N        0  -1.708606          0.910595          0.043651
     15     15  C        0  -2.727699          1.082221         -0.850989
     16     16  Cl       0  -2.623508          0.492047         -2.468674
     17     17  N        0   1.354083          0.908423         -1.309878
     18     18  C        0   2.655633          0.601898         -1.600176
     19     19  Cl       0   3.385520         -0.887557         -1.106150
     20     20  C        0   0.067643         -2.361991         -2.031574
     21     21  H        0   0.570486         -1.731302         -2.750488
     22     22  C        0  -2.173110          1.506326          1.175802
     23     23  H        0  -1.587341          1.528280          2.085030
     24     24  C        0   1.186231          2.135322         -1.874765
     25     25  H        0   0.240956          2.658795         -1.818150
     26     26  Co       0  -0.006127         -0.011630         -0.204441
     27     27  C        0   1.873248         -0.680534          2.304566
     28     28  C        0   1.923060          0.770667          2.119168
     29     29  O        0   0.737945          0.028034          1.741094
     30     30  C        0   1.621428         -1.314969          3.637851
     31     31  H        0   2.472266          1.191935          1.282147
     32     32  H        0   1.762076          1.423292          2.972470
     33     33  H        0   1.037087         -2.230637          3.520032
     34     34  H        0   1.075543         -0.634527          4.294672
     35     35  H        0   2.572988         -1.573533          4.110718
     36     36  H        0   2.394820         -1.282193          1.563812
 ---------------------------------------------------------------------------------------------------
                         Z-Matrix orientation:                         
 ---------------------------------------------------------------------
 Center     Atomic      Atomic             Coordinates (Angstroms)
 Number     Number       Type             X           Y           Z
 ---------------------------------------------------------------------
      1          3           0       -0.658759   -5.046055   -3.464522
      2          7           0       -0.328360   -3.614087   -2.281904
      3          6           0       -0.906263   -4.016726   -1.112143
      4         17           0       -1.577138   -5.615129   -1.032924
      5          7           0        2.258511    2.612686   -2.483143
      6          6           0        3.188540    1.644460   -2.312649
      7         17           0        4.793597    1.770585   -2.934288
      8          7           0       -3.379063    2.028570    1.064048
      9          6           0       -3.732950    1.762614   -0.217884
     10         17           0       -5.251816    2.241925   -0.881119
     11          7           0       -0.218929   -1.952793   -0.791554
     12          6           0       -0.847042   -3.010305   -0.194609
     13         17           0       -1.414808   -2.970619    1.418439
     14          7           0       -1.708606    0.910595    0.043651
     15          6           0       -2.727699    1.082221   -0.850989
     16         17           0       -2.623508    0.492047   -2.468674
     17          7           0        1.354083    0.908423   -1.309878
     18          6           0        2.655633    0.601898   -1.600176
     19         17           0        3.385520   -0.887557   -1.106150
     20          6           0        0.067643   -2.361991   -2.031574
     21          1           0        0.570486   -1.731302   -2.750488
     22          6           0       -2.173110    1.506326    1.175802
     23          1           0       -1.587341    1.528280    2.085030
     24          6           0        1.186231    2.135322   -1.874765
     25          1           0        0.240956    2.658795   -1.818150
     26         27           0       -0.006127   -0.011630   -0.204441
     27          6           0        1.873248   -0.680534    2.304566
     28          6           0        1.923060    0.770667    2.119168
     29          8           0        0.737945    0.028034    1.741094
     30          6           0        1.621428   -1.314969    3.637851
     31          1           0        2.472266    1.191935    1.282147
     32          1           0        1.762076    1.423292    2.972470
     33          1           0        1.037087   -2.230637    3.520032
     34          1           0        1.075543   -0.634527    4.294672
     35          1           0        2.572988   -1.573533    4.110718
     36          1           0        2.394820   -1.282193    1.563812
 ---------------------------------------------------------------------
                    Distance matrix (angstroms):
                    1          2          3          4          5
     1  Li   0.000000
     2  N    1.886341   0.000000
     3  C    2.579625   1.365442   0.000000
     4  Cl   2.660815   2.669001   1.735293   0.000000
     5  N    8.254083   6.745747   7.472920   9.193056   0.000000
     6  C    7.803301   6.326282   7.089263   8.777871   1.353323
     7  Cl   8.745051   7.460211   8.324757   9.937315   2.709119
     8  N    8.829401   7.234761   6.884486   8.128368   6.686254
     9  C    8.145507   6.690316   6.495431   7.729354   6.461550
    10  Cl   8.993598   7.777885   7.622855   8.675229   7.688235
    11  N    4.111749   2.234506   2.198869   3.913527   5.462855
    12  C    3.856431   2.233917   1.363180   2.832123   6.819082
    13  Cl   5.359324   3.909854   2.785104   3.609566   7.738792
    14  N    6.992220   5.271246   5.124266   6.615238   5.001982
    15  C    6.976162   5.464399   5.420802   6.797896   5.465212
    16  Cl   5.960078   4.707751   5.011800   6.360335   5.322728
    17  N    6.644534   4.922250   5.422671   7.157199   2.258108
    18  C    6.808844   5.209942   5.852945   7.542516   2.231727
    19  Cl   6.261886   4.754920   5.311416   6.854435   3.926571
    20  C    3.128130   1.336872   2.128848   3.779618   5.454469
    21  H    3.606726   2.138311   3.176181   4.758826   4.668097
    22  C    8.170653   6.448059   6.110949   7.479891   5.852450
    23  H    8.653420   6.862877   6.436837   7.794231   6.069161
    24  C    7.583106   5.959484   6.542768   8.271299   1.322038
    25  H    7.929990   6.315714   6.810076   8.507636   2.124822
    26  Co   6.033199   4.171017   4.204160   5.878236   4.148265
    27  C    7.664934   5.872693   5.525374   6.884347   5.823734
    28  C    8.466265   6.607904   6.431607   7.935078   4.968584
    29  O    7.402405   5.530512   5.215790   6.700752   5.180417
    30  C    8.340501   6.643125   6.020893   7.109032   7.300611
    31  H    8.440776   6.606346   6.654114   8.251869   4.030091
    32  H    9.441809   7.573213   7.307386   8.759732   5.605784
    33  H    7.719227   6.118892   5.331395   6.246468   7.809466
    34  H    9.092550   7.355275   6.678359   7.760566   7.608060
    35  H    8.937945   7.310766   6.734438   7.746941   7.816798
    36  H    6.983920   5.257658   5.053272   6.426027   5.618408
                    6          7          8          9         10
     6  C    0.000000
     7  Cl   1.725848   0.000000
     8  N    7.394798   9.101957   0.000000
     9  C    7.232498   8.948794   1.356215   0.000000
    10  Cl   8.581716  10.263917   2.708579   1.725275   0.000000
    11  N    5.183127   6.601535   5.411188   5.146036   6.552376
    12  C    6.514511   7.885402   5.778028   5.577613   6.889067
    13  Cl   7.510711   8.942569   5.382916   5.518589   6.868858
    14  N    5.483862   7.203218   2.254219   2.211856   3.896406
    15  C    6.120004   7.834786   2.233208   1.369046   2.777947
    16  Cl   5.927251   7.540882   3.925798   2.812696   3.534177
    17  N    2.216423   3.900293   5.412294   5.272570   6.752775
    18  C    1.370600   2.777872   6.749151   6.638673   8.107680
    19  Cl   2.811681   3.520013   7.679397   7.647551   9.189552
    20  C    5.086320   6.342532   6.382765   5.894603   7.128551
    21  H    4.294378   5.489231   6.654792   6.094349   7.292481
    22  C    6.398098   8.093064   1.318920   2.107402   3.774978
    23  H    6.493236   8.122108   2.122018   3.156258   4.768197
    24  C    2.107588   3.777395   5.430463   5.204086   6.515147
    25  H    3.156209   4.770872   4.669988   4.376748   5.587696
    26  Co   4.170500   5.802216   4.141036   4.127630   5.749231
    27  C    5.334254   6.479353   6.038617   6.615224   8.334020
    28  C    4.691051   5.897223   5.550505   6.199695   7.914870
    29  O    5.005106   6.429930   4.627126   5.180277   6.903228
    30  C    6.828068   7.923150   6.542830   7.280630   8.961812
    31  H    3.693289   4.847859   5.914861   6.409405   8.089724
    32  H    5.478704   6.648347   5.517223   6.363082   8.044563
    33  H    7.325660   8.472272   6.608713   7.257501   8.883932
    34  H    7.301728   8.477402   6.113308   7.016484   8.665925
    35  H    7.210688   8.108412   7.595015   8.344551  10.035124
    36  H    4.921609   5.941926   6.674477   7.070704   8.767448
                   11         12         13         14         15
    11  N    0.000000
    12  C    1.367187   0.000000
    13  Cl   2.711119   1.710514   0.000000
    14  N    3.334021   4.021507   4.127975   0.000000
    15  C    3.938117   4.551535   4.826955   1.366889   0.000000
    16  Cl   3.817326   4.538025   5.344217   2.706290   1.725128
    17  N    3.305992   4.630897   5.491579   3.348449   4.111171
    18  C    3.929812   5.224209   6.200275   4.673761   5.456396
    19  Cl   3.771704   4.821986   5.809978   5.523180   6.427797
    20  C    1.336868   2.152069   3.804035   4.262797   4.590241
    21  H    2.123595   3.190259   4.780926   4.470022   4.733079
    22  C    4.433375   4.902697   4.547189   1.361038   2.143669
    23  H    4.718597   5.132597   4.551286   2.136228   3.181131
    24  C    4.456513   5.782266   6.609178   3.682439   4.180429
    25  H    4.746803   5.996526   6.701296   3.212989   3.497699
    26  Co   2.039142   3.114368   3.657012   1.952046   3.003579
    27  C    3.947380   4.367343   4.103782   4.524722   5.850944
    28  C    4.525224   5.227120   5.062569   4.185254   5.527066
    29  O    3.354637   3.935814   3.705452   3.105775   4.454312
    30  C    4.838736   4.863667   4.109221   5.381499   6.694110
    31  H    4.629480   5.554947   5.696909   4.369521   5.621560
    32  H    5.430489   6.041082   5.640395   4.570172   5.907051
    33  H    4.499394   4.237497   3.313013   5.430598   6.652403
    34  H    5.411393   5.430865   4.464515   5.311315   6.624930
    35  H    5.654282   5.683024   5.010263   6.406557   7.731032
    36  H    3.581778   4.072847   4.169554   4.894621   6.136931
                   16         17         18         19         20
    16  Cl   0.000000
    17  N    4.163821   0.000000
    18  C    5.351232   1.368307   0.000000
    19  Cl   6.314127   2.719152   1.730686   0.000000
    20  C    3.947009   3.587671   3.958337   3.746822   0.000000
    21  H    3.901833   3.107657   3.333898   3.367517   1.080489
    22  C    3.809702   4.356281   5.642766   6.468102   5.502010
    23  H    4.783685   4.534490   5.695766   6.383514   5.900814
    24  C    4.191323   1.361085   2.141479   3.816469   4.636987
    25  H    3.650087   2.135695   3.179466   4.792895   5.028308
    26  Co   3.497303   1.979560   3.067484   3.617125   2.977928
    27  C    6.661800   3.982276   4.183750   3.736684   4.988950
    28  C    6.465076   3.478659   3.794557   3.910393   5.521302
    29  O    5.407108   3.234678   3.894988   3.994341   4.516032
    30  C    7.653394   5.430927   5.672820   5.079394   5.971003
    31  H    6.365957   2.837130   2.947805   3.295798   5.421563
    32  H    7.050292   4.332442   4.730985   4.960921   6.499225
    33  H    7.528450   5.769074   6.071201   5.359157   5.637145
    34  H    7.790699   5.819730   6.226931   5.879532   6.634861
    35  H    8.634732   6.085121   6.111762   5.324142   6.680282
    36  H    6.677761   3.760323   3.691699   2.875052   4.416845
                   21         22         23         24         25
    21  H    0.000000
    22  C    5.781462   0.000000
    23  H    6.217984   1.081805   0.000000
    24  C    4.012083   4.581132   4.872492   0.000000
    25  H    4.500088   4.014928   4.455956   1.082023   0.000000
    26  Co   3.126037   2.984137   3.180132   2.970034   3.129900
    27  C    5.324929   4.735977   4.111293   5.086044   5.550881
    28  C    5.639402   4.267287   3.591387   4.284472   4.679420
    29  O    4.826760   3.313479   2.788545   4.209045   4.453776
    30  C    6.487579   5.331033   4.559772   6.517886   6.889445
    31  H    5.331438   4.657217   4.151886   3.536942   4.091731
    32  H    6.642560   4.326731   3.466578   4.932978   5.175936
    33  H    6.307652   5.455792   4.803781   6.941734   7.282620
    34  H    7.147886   4.986416   4.080589   6.763599   6.993504
    35  H    7.149199   6.373752   5.570726   7.176678   7.648689
    36  H    4.705643   5.365853   4.901840   4.996389   5.622116
                   26         27         28         29         30
    26  Co   0.000000
    27  C    3.205402   0.000000
    28  C    3.119761   1.463844   0.000000
    29  O    2.083344   1.452061   1.448772   0.000000
    30  C    4.371594   1.497855   2.597548   2.486340   0.000000
    31  H    3.130646   2.215920   1.086139   2.138496   3.543703
    32  H    3.908747   2.210099   1.086259   2.124118   2.821451
    33  H    4.459146   2.139940   3.428585   2.890623   1.092604
    34  H    4.669050   2.144521   2.725009   2.659647   1.091973
    35  H    5.264216   2.132901   3.143875   3.398164   1.093584
    36  H    3.241234   1.087542   2.178351   2.119754   2.213786
                   31         32         33         34         35
    31  H    0.000000
    32  H    1.847996   0.000000
    33  H    4.333805   3.765187   0.000000
    34  H    3.789737   2.540505   1.774574   0.000000
    35  H    3.957117   3.306682   1.771916   1.777052   0.000000
    36  H    2.491313   3.115178   2.563159   3.101219   2.569699
                   36
    36  H    0.000000
 Symmetry turned off by external request.
 Stoichiometry    C12H9Cl6CoLiN6O(4)
 Framework group  C1[X(C12H9Cl6CoLiN6O)]
 Deg. of freedom   102
 Full point group                 C1      NOp   1
 Rotational constants (GHZ):           0.1224407           0.1008306           0.0780693
 General basis read from cards:  (5D, 7F)
 ======================================================================================================
                                       Pseudopotential Parameters
 ======================================================================================================
  Center     Atomic      Valence      Angular      Power
  Number     Number     Electrons     Momentum     of R      Exponent        Coefficient   SO-Coeffient
 ======================================================================================================
    1          3
                                   No pseudopotential on this center.
    2          7
                                   No pseudopotential on this center.
    3          6
                                   No pseudopotential on this center.
    4         17
                                   No pseudopotential on this center.
    5          7
                                   No pseudopotential on this center.
    6          6
                                   No pseudopotential on this center.
    7         17
                                   No pseudopotential on this center.
    8          7
                                   No pseudopotential on this center.
    9          6
                                   No pseudopotential on this center.
   10         17
                                   No pseudopotential on this center.
   11          7
                                   No pseudopotential on this center.
   12          6
                                   No pseudopotential on this center.
   13         17
                                   No pseudopotential on this center.
   14          7
                                   No pseudopotential on this center.
   15          6
                                   No pseudopotential on this center.
   16         17
                                   No pseudopotential on this center.
   17          7
                                   No pseudopotential on this center.
   18          6
                                   No pseudopotential on this center.
   19         17
                                   No pseudopotential on this center.
   20          6
                                   No pseudopotential on this center.
   21          1
                                   No pseudopotential on this center.
   22          6
                                   No pseudopotential on this center.
   23          1
                                   No pseudopotential on this center.
   24          6
                                   No pseudopotential on this center.
   25          1
                                   No pseudopotential on this center.
   26         27           17
                                      D and up 
                                                     1      434.1076104      -10.00000000    0.00000000
                                                     2       78.8402758      -66.72402760    0.00000000
                                                     2       19.6037749      -11.71922430    0.00000000
                                      S - D
                                                     0      151.2307582        3.00000000    0.00000000
                                                     1      169.6790026       20.15531100    0.00000000
                                                     2       64.9909423      413.37622440    0.00000000
                                                     2       12.5076287      133.87277050    0.00000000
                                      P - D
                                                     0       92.7319924        5.00000000    0.00000000
                                                     1      121.1910183        6.18923530    0.00000000
                                                     2       48.6265909      326.32159190    0.00000000
                                                     2       11.9966971       73.87889700    0.00000000
   27          6
                                   No pseudopotential on this center.
   28          6
                                   No pseudopotential on this center.
   29          8
                                   No pseudopotential on this center.
   30          6
                                   No pseudopotential on this center.
   31          1
                                   No pseudopotential on this center.
   32          1
                                   No pseudopotential on this center.
   33          1
                                   No pseudopotential on this center.
   34          1
                                   No pseudopotential on this center.
   35          1
                                   No pseudopotential on this center.
   36          1
                                   No pseudopotential on this center.
 ======================================================================================================
   455 basis functions,   987 primitive gaussians,   483 cartesian basis functions
   128 alpha electrons      125 beta electrons
       nuclear repulsion energy      3783.7580154340 Hartrees.
 NAtoms=   36 NActive=   36 NUniq=   36 SFac= 1.00D+00 NAtFMM=   60 NAOKFM=F Big=F
 Integral buffers will be    131072 words long.
 Raffenetti 2 integral format.
 Two-electron integral symmetry is turned off.
 One-electron integrals computed using PRISM.
   1 Symmetry operations used in ECPInt.
 ECPInt:  NShTT=   10585 NPrTT=   74520 LenC2=    8658 LenP2D=   31749.
 LDataN:  DoStor=T MaxTD1= 4 Len=   56
 NBasis=   455 RedAO= T EigKep=  1.33D-03  NBF=   455
 NBsUse=   455 1.00D-06 EigRej= -1.00D+00 NBFU=   455
 ExpMin= 2.30D-02 ExpMax= 2.52D+04 ExpMxC= 3.78D+03 IAcc=3 IRadAn=         5 AccDes= 0.00D+00
 Harris functional with IExCor=20419 and IRadAn=       5 diagonalized for initial guess.
 HarFok:  IExCor=20419 AccDes= 0.00D+00 IRadAn=         5 IDoV= 1 UseB2=F ITyADJ=14
 ICtDFT=  3500011 ScaDFX=  1.000000  1.000000  1.000000  1.000000
 FoFCou: FMM=F IPFlag=           0 FMFlag=      100000 FMFlg1=           0
         NFxFlg=           0 DoJE=T BraDBF=F KetDBF=T FulRan=T
         wScrn=  0.000000 ICntrl=       500 IOpCl=  0 I1Cent=   200000004 NGrid=           0
         NMat0=    1 NMatS0=      1 NMatT0=    0 NMatD0=    1 NMtDS0=    0 NMtDT0=    0
 Symmetry not used in FoFCou.
 Initial guess <Sx>= 0.0000 <Sy>= 0.0000 <Sz>= 1.5000 <S**2>= 3.7500 S= 1.5000
 Gradient too large for Newton-Raphson -- use scaled steepest descent instead.
     Accept linear search using points  3 and  4.
 Gradient too large for Newton-Raphson -- use scaled steepest descent instead.
 Gradient too large for Newton-Raphson -- use scaled steepest descent instead.
     Accept linear search using points  1 and  2.
 Gradient too large for Newton-Raphson -- use scaled steepest descent instead.
     Minimum is close to point  4 DX=  1.51D-01 DF= -1.13D-03 DXR=  9.12D-02 DFR=  8.52D-03 which will be used.
 Gradient too large for Newton-Raphson -- use scaled steepest descent instead.
 Gradient too large for Newton-Raphson -- use scaled steepest descent instead.
 Restarting incremental Fock formation.
 Gradient too large for Newton-Raphson -- use scaled steepest descent instead.
     Accept linear search using points  1 and  2.
 Gradient too large for Newton-Raphson -- use scaled steepest descent instead.
     Accept linear search using points  1 and  2.
 Gradient too large for Newton-Raphson -- use scaled steepest descent instead.
     Accept linear search using points  4 and  5.
 Gradient too large for Newton-Raphson -- use scaled steepest descent instead.
     Minimum is close to point  3 DX=  1.01D-01 DF= -5.17D-04 DXR=  9.17D-02 DFR=  8.23D-03 which will be used.
 Gradient too large for Newton-Raphson -- use scaled steepest descent instead.
 Gradient too large for Newton-Raphson -- use scaled steepest descent instead.
     Minimum is close to point  2 DX=  7.28D-02 DF= -3.18D-04 DXR=  9.42D-02 DFR=  8.95D-03 which will be used.
 Gradient too large for Newton-Raphson -- use scaled steepest descent instead.
     Accept linear search using points  1 and  2.
 Restarting incremental Fock formation.
 Gradient too large for Newton-Raphson -- use scaled steepest descent instead.
     Accept linear search using points  3 and  4.
 Gradient too large for Newton-Raphson -- use scaled steepest descent instead.
     Accept linear search using points  1 and  2.
 Gradient too large for Newton-Raphson -- use scaled steepest descent instead.
     Accept linear search using points  3 and  4.
 Gradient too large for Newton-Raphson -- use scaled steepest descent instead.
     Accept linear search using points  1 and  2.
 Gradient too large for Newton-Raphson -- use scaled steepest descent instead.
 Gradient too large for Newton-Raphson -- use scaled steepest descent instead.
     Accept linear search using points  1 and  2.
 Gradient too large for Newton-Raphson -- use scaled steepest descent instead.
 Restarting incremental Fock formation.
     Accept linear search using points  2 and  3.
     Minimum is close to point  3 DX= -6.43D-02 DF= -1.20D-06 DXR=  3.16D-02 DFR=  1.00D-03 which will be used.
 Gradient too large for Newton-Raphson -- use scaled steepest descent instead.
     Accept linear search using points  1 and  2.
 Gradient too large for Newton-Raphson -- use scaled steepest descent instead.
     Accept linear search using points  2 and  3.
     Minimum is close to point  3 DX= -1.28D-01 DF= -3.46D-06 DXR=  6.52D-02 DFR=  4.28D-03 which will be used.
 Gradient too large for Newton-Raphson -- use scaled steepest descent instead.
     Minimum is close to point  3 DX=  3.78D-02 DF= -3.90D-06 DXR=  7.03D-02 DFR=  4.96D-03 which will be used.
 Gradient too large for Newton-Raphson -- use scaled steepest descent instead.
     Minimum is close to point  4 DX=  2.44D-01 DF= -3.95D-06 DXR=  5.62D-02 DFR=  3.22D-03 which will be used.
 Gradient too large for Newton-Raphson -- use scaled steepest descent instead.
 Gradient too large for Newton-Raphson -- use scaled steepest descent instead.
 Gradient too large for Newton-Raphson -- use scaled steepest descent instead.
 Restarting incremental Fock formation.
 LinEq1:  Iter=  0 NonCon=     1 RMS=8.14D-05 Max=7.87D-03 NDo=     1
 AX will form     1 AO Fock derivatives at one time.
 LinEq1:  Iter=  1 NonCon=     1 RMS=4.77D-05 Max=2.09D-03 NDo=     1
 LinEq1:  Iter=  2 NonCon=     1 RMS=1.38D-05 Max=1.39D-03 NDo=     1
 LinEq1:  Iter=  3 NonCon=     1 RMS=6.38D-06 Max=3.04D-04 NDo=     1
 LinEq1:  Iter=  4 NonCon=     1 RMS=5.01D-06 Max=4.70D-04 NDo=     1
 LinEq1:  Iter=  5 NonCon=     1 RMS=2.56D-06 Max=1.25D-04 NDo=     1
 LinEq1:  Iter=  6 NonCon=     1 RMS=1.56D-06 Max=7.32D-05 NDo=     1
 LinEq1:  Iter=  7 NonCon=     1 RMS=9.09D-07 Max=4.62D-05 NDo=     1
 LinEq1:  Iter=  8 NonCon=     1 RMS=4.86D-07 Max=2.61D-05 NDo=     1
 LinEq1:  Iter=  9 NonCon=     1 RMS=4.41D-07 Max=2.78D-05 NDo=     1
 LinEq1:  Iter= 10 NonCon=     1 RMS=2.60D-07 Max=1.11D-05 NDo=     1
 LinEq1:  Iter= 11 NonCon=     1 RMS=1.15D-07 Max=6.41D-06 NDo=     1
 LinEq1:  Iter= 12 NonCon=     1 RMS=6.72D-08 Max=4.51D-06 NDo=     1
 LinEq1:  Iter= 13 NonCon=     1 RMS=4.55D-08 Max=4.68D-06 NDo=     1
 LinEq1:  Iter= 14 NonCon=     1 RMS=2.93D-08 Max=2.20D-06 NDo=     1
 LinEq1:  Iter= 15 NonCon=     1 RMS=1.52D-08 Max=8.81D-07 NDo=     1
 LinEq1:  Iter= 16 NonCon=     1 RMS=1.03D-08 Max=6.01D-07 NDo=     1
 LinEq1:  Iter= 17 NonCon=     0 RMS=5.66D-09 Max=2.42D-07 NDo=     1
 Linear equations converged to 2.883D-08 2.883D-07 after    17 iterations.
     Accept linear search using points  1 and  2.
 LinEq1:  Iter=  0 NonCon=     1 RMS=2.81D-05 Max=1.19D-03 NDo=     1
 LinEq1:  Iter=  1 NonCon=     1 RMS=2.06D-05 Max=1.14D-03 NDo=     1
 LinEq1:  Iter=  2 NonCon=     1 RMS=6.85D-06 Max=5.06D-04 NDo=     1
 LinEq1:  Iter=  3 NonCon=     1 RMS=5.44D-06 Max=3.91D-04 NDo=     1
 LinEq1:  Iter=  4 NonCon=     1 RMS=3.61D-06 Max=2.87D-04 NDo=     1
 LinEq1:  Iter=  5 NonCon=     1 RMS=2.79D-06 Max=1.34D-04 NDo=     1
 LinEq1:  Iter=  6 NonCon=     1 RMS=1.39D-06 Max=8.33D-05 NDo=     1
 LinEq1:  Iter=  7 NonCon=     1 RMS=8.98D-07 Max=6.17D-05 NDo=     1
 LinEq1:  Iter=  8 NonCon=     1 RMS=5.49D-07 Max=4.19D-05 NDo=     1
 LinEq1:  Iter=  9 NonCon=     1 RMS=3.80D-07 Max=3.13D-05 NDo=     1
 LinEq1:  Iter= 10 NonCon=     1 RMS=2.00D-07 Max=9.92D-06 NDo=     1
 LinEq1:  Iter= 11 NonCon=     1 RMS=1.24D-07 Max=5.77D-06 NDo=     1
 LinEq1:  Iter= 12 NonCon=     1 RMS=7.45D-08 Max=3.34D-06 NDo=     1
 LinEq1:  Iter= 13 NonCon=     1 RMS=4.49D-08 Max=2.32D-06 NDo=     1
 LinEq1:  Iter= 14 NonCon=     1 RMS=3.31D-08 Max=1.87D-06 NDo=     1
 LinEq1:  Iter= 15 NonCon=     1 RMS=2.25D-08 Max=1.22D-06 NDo=     1
 LinEq1:  Iter= 16 NonCon=     1 RMS=1.46D-08 Max=6.13D-07 NDo=     1
 LinEq1:  Iter= 17 NonCon=     1 RMS=9.08D-09 Max=3.14D-07 NDo=     1
 LinEq1:  Iter= 18 NonCon=     0 RMS=5.66D-09 Max=2.82D-07 NDo=     1
 Linear equations converged to 2.883D-08 2.883D-07 after    18 iterations.
     Minimum is close to point  2 DX=  1.00D-03 DF= -5.91D-11 DXR=  1.00D-03 DFR=  9.94D-07 which will be used.
 LinEq1:  Iter=  0 NonCon=     1 RMS=9.89D-08 Max=6.30D-06 NDo=     1
 LinEq1:  Iter=  1 NonCon=     1 RMS=6.31D-08 Max=3.78D-06 NDo=     1
 LinEq1:  Iter=  2 NonCon=     1 RMS=4.20D-08 Max=2.95D-06 NDo=     1
 LinEq1:  Iter=  3 NonCon=     1 RMS=3.31D-08 Max=2.01D-06 NDo=     1
 LinEq1:  Iter=  4 NonCon=     1 RMS=1.96D-08 Max=1.21D-06 NDo=     1
 LinEq1:  Iter=  5 NonCon=     1 RMS=1.43D-08 Max=7.81D-07 NDo=     1
 LinEq1:  Iter=  6 NonCon=     1 RMS=9.37D-09 Max=5.69D-07 NDo=     1
 LinEq1:  Iter=  7 NonCon=     1 RMS=5.99D-09 Max=4.31D-07 NDo=     1
 LinEq1:  Iter=  8 NonCon=     1 RMS=3.82D-09 Max=2.67D-07 NDo=     1
 LinEq1:  Iter=  9 NonCon=     1 RMS=2.57D-09 Max=2.07D-07 NDo=     1
 LinEq1:  Iter= 10 NonCon=     1 RMS=1.63D-09 Max=1.23D-07 NDo=     1
 LinEq1:  Iter= 11 NonCon=     1 RMS=1.01D-09 Max=5.69D-08 NDo=     1
 LinEq1:  Iter= 12 NonCon=     1 RMS=6.01D-10 Max=3.06D-08 NDo=     1
 LinEq1:  Iter= 13 NonCon=     1 RMS=3.57D-10 Max=1.63D-08 NDo=     1
 LinEq1:  Iter= 14 NonCon=     1 RMS=2.41D-10 Max=1.59D-08 NDo=     1
 LinEq1:  Iter= 15 NonCon=     1 RMS=1.53D-10 Max=9.57D-09 NDo=     1
 LinEq1:  Iter= 16 NonCon=     1 RMS=1.06D-10 Max=6.66D-09 NDo=     1
 LinEq1:  Iter= 17 NonCon=     1 RMS=5.30D-11 Max=2.75D-09 NDo=     1
 LinEq1:  Iter= 18 NonCon=     0 RMS=3.62D-11 Max=2.28D-09 NDo=     1
 Linear equations converged to 2.510D-10 2.510D-09 after    18 iterations.
 SCF Done:  E(UCAM-B3LYP) =  -3779.74680063     a.u. after   31 cycles
            Convg  =    0.1852D-06                   139 Fock formations.
              S**2 =  3.7550                  -V/T =  2.0185
 <Sx>= 0.0000 <Sy>= 0.0000 <Sz>= 1.5000 <S**2>= 3.7550 S= 1.5013
 <L.S>=  0.00000000000    
 Annihilation of the first spin contaminant:
 S**2 before annihilation     3.7550,   after     3.7500
 DoSCS=F DFT=T ScalE2(SS,OS)=  1.000000  1.000000
 Range of M.O.s used for correlation:     1   455
 NBasis=   455 NAE=   128 NBE=   125 NFC=     0 NFV=     0
 NROrb=    455 NOA=   128 NOB=   125 NVA=   327 NVB=   330
   1 Symmetry operations used in ECPInt.
 ECPInt:  NShTT=   10585 NPrTT=   74520 LenC2=    8658 LenP2D=   31749.
 LDataN:  DoStor=T MaxTD1= 5 Len=  102
 Number of processors reduced to  25 by ecpmxn.
 Symmetrizing basis deriv contribution to polar:
 IMax=3 JMax=2 DiffMx= 0.00D+00
 G2DrvN: will do    37 centers at a time, making    1 passes.
 Calling FoFCou, ICntrl=  3107 FMM=F I1Cent=   0 AccDes= 0.00D+00.
 End of G2Drv F.D. properties file   721 does not exist.
 End of G2Drv F.D. properties file   722 does not exist.
 End of G2Drv F.D. properties file   788 does not exist.
          IDoAtm=001101101111111111111111111111111111
          Differentiating once with respect to electric field.
                with respect to dipole field.
          Differentiating once with respect to nuclear coordinates.
 CalDSu exits because no D1Ps are significant.
          There are    99 degrees of freedom in the 1st order CPHF.  IDoFFX=6 NUNeed=     3.
     99 vectors produced by pass  0 Test12= 8.39D-14 1.01D-09 XBig12= 2.47D+02 3.01D+00.
 AX will form    99 AO Fock derivatives at one time.
     99 vectors produced by pass  1 Test12= 8.39D-14 1.01D-09 XBig12= 3.53D+01 8.48D-01.
     99 vectors produced by pass  2 Test12= 8.39D-14 1.01D-09 XBig12= 1.20D+00 1.94D-01.
     99 vectors produced by pass  3 Test12= 8.39D-14 1.01D-09 XBig12= 4.53D-02 3.08D-02.
     99 vectors produced by pass  4 Test12= 8.39D-14 1.01D-09 XBig12= 6.79D-04 2.72D-03.
     99 vectors produced by pass  5 Test12= 8.39D-14 1.01D-09 XBig12= 7.57D-06 3.09D-04.
     99 vectors produced by pass  6 Test12= 8.39D-14 1.01D-09 XBig12= 1.00D-07 3.71D-05.
     80 vectors produced by pass  7 Test12= 8.39D-14 1.01D-09 XBig12= 1.00D-09 2.54D-06.
     40 vectors produced by pass  8 Test12= 8.39D-14 1.01D-09 XBig12= 9.80D-12 1.87D-07.
      3 vectors produced by pass  9 Test12= 8.39D-14 1.01D-09 XBig12= 8.56D-14 2.27D-08.
      3 vectors produced by pass 10 Test12= 8.39D-14 1.01D-09 XBig12= 8.09D-16 2.08D-09.
 InvSVY:  IOpt=1 It=  1 EMax= 7.11D-15
 Solved reduced A of dimension   819 with    99 vectors.
 Isotropic polarizability for W=    0.000000      241.17 Bohr**3.
 End of Minotr F.D. properties file   721 does not exist.
 End of Minotr F.D. properties file   722 does not exist.
 End of Minotr F.D. properties file   788 does not exist.

 **********************************************************************

            Population analysis using the SCF density.

 **********************************************************************

 Alpha  occ. eigenvalues -- -101.66966-101.63674-101.61034-101.59404-101.57958
 Alpha  occ. eigenvalues -- -101.56989 -19.29367 -14.45684 -14.45223 -14.41282
 Alpha  occ. eigenvalues --  -14.40459 -14.36626 -14.35943 -10.36886 -10.36682
 Alpha  occ. eigenvalues --  -10.35433 -10.34760 -10.34484 -10.31348 -10.30280
 Alpha  occ. eigenvalues --  -10.30250 -10.29263 -10.28337 -10.28040 -10.27787
 Alpha  occ. eigenvalues --   -9.60181  -9.56837  -9.54193  -9.52576  -9.51222
 Alpha  occ. eigenvalues --   -9.50252  -7.36577  -7.35690  -7.35566  -7.33315
 Alpha  occ. eigenvalues --   -7.32254  -7.32242  -7.30615  -7.29650  -7.29628
 Alpha  occ. eigenvalues --   -7.29009  -7.28025  -7.28002  -7.27659  -7.26689
 Alpha  occ. eigenvalues --   -7.26657  -7.26637  -7.25687  -7.25669  -3.95953
 Alpha  occ. eigenvalues --   -2.66134  -2.66008  -2.64697  -2.16703  -1.20426
 Alpha  occ. eigenvalues --   -1.14163  -1.07818  -1.07032  -1.01777  -0.99356
 Alpha  occ. eigenvalues --   -0.95352  -0.94512  -0.94174  -0.93560  -0.92514
 Alpha  occ. eigenvalues --   -0.88494  -0.87538  -0.86532  -0.83018  -0.78899
 Alpha  occ. eigenvalues --   -0.76804  -0.75967  -0.71147  -0.70596  -0.68173
 Alpha  occ. eigenvalues --   -0.64460  -0.63623  -0.63357  -0.62523  -0.61714
 Alpha  occ. eigenvalues --   -0.60860  -0.58130  -0.57023  -0.56234  -0.56099
 Alpha  occ. eigenvalues --   -0.54451  -0.53189  -0.52592  -0.51945  -0.51276
 Alpha  occ. eigenvalues --   -0.50645  -0.50101  -0.49553  -0.48855  -0.48529
 Alpha  occ. eigenvalues --   -0.47904  -0.47660  -0.46831  -0.46784  -0.46458
 Alpha  occ. eigenvalues --   -0.45804  -0.45253  -0.45094  -0.44376  -0.44268
 Alpha  occ. eigenvalues --   -0.44111  -0.43561  -0.41130  -0.40849  -0.40533
 Alpha  occ. eigenvalues --   -0.39962  -0.39295  -0.39062  -0.38717  -0.38243
 Alpha  occ. eigenvalues --   -0.38159  -0.37378  -0.37099  -0.35939  -0.35004
 Alpha  occ. eigenvalues --   -0.34053  -0.31485  -0.30860  -0.30668  -0.30429
 Alpha  occ. eigenvalues --   -0.29388  -0.25113  -0.24086
 Alpha virt. eigenvalues --   -0.06285  -0.00595   0.00203   0.03998   0.04303
 Alpha virt. eigenvalues --    0.04457   0.05696   0.06010   0.06262   0.06700
 Alpha virt. eigenvalues --    0.08154   0.09132   0.10306   0.10620   0.11233
 Alpha virt. eigenvalues --    0.11756   0.12098   0.12401   0.12793   0.12941
 Alpha virt. eigenvalues --    0.13366   0.13568   0.14401   0.14731   0.14955
 Alpha virt. eigenvalues --    0.16786   0.17157   0.19108   0.19675   0.19830
 Alpha virt. eigenvalues --    0.20467   0.20973   0.21733   0.22361   0.24051
 Alpha virt. eigenvalues --    0.24488   0.25621   0.26207   0.27037   0.28164
 Alpha virt. eigenvalues --    0.28748   0.30904   0.32020   0.32678   0.33307
 Alpha virt. eigenvalues --    0.34751   0.35367   0.36128   0.38033   0.38585
 Alpha virt. eigenvalues --    0.39689   0.40488   0.40800   0.41806   0.42207
 Alpha virt. eigenvalues --    0.42323   0.42855   0.43545   0.45751   0.46307
 Alpha virt. eigenvalues --    0.46397   0.47032   0.47496   0.47820   0.48587
 Alpha virt. eigenvalues --    0.49129   0.49509   0.49523   0.50388   0.51066
 Alpha virt. eigenvalues --    0.51797   0.51844   0.52943   0.53539   0.54037
 Alpha virt. eigenvalues --    0.54826   0.55178   0.55379   0.55997   0.57477
 Alpha virt. eigenvalues --    0.58100   0.58456   0.60668   0.61086   0.61561
 Alpha virt. eigenvalues --    0.62858   0.63552   0.63778   0.64689   0.64910
 Alpha virt. eigenvalues --    0.65682   0.65712   0.66648   0.67149   0.68002
 Alpha virt. eigenvalues --    0.68505   0.68690   0.69254   0.69351   0.70391
 Alpha virt. eigenvalues --    0.70797   0.71643   0.72194   0.72662   0.73357
 Alpha virt. eigenvalues --    0.74032   0.74697   0.75689   0.76244   0.77092
 Alpha virt. eigenvalues --    0.77323   0.78614   0.79500   0.81096   0.82346
 Alpha virt. eigenvalues --    0.83459   0.84745   0.84895   0.85637   0.86278
 Alpha virt. eigenvalues --    0.86754   0.87258   0.88798   0.89386   0.89501
 Alpha virt. eigenvalues --    0.89641   0.89869   0.90036   0.90352   0.90816
 Alpha virt. eigenvalues --    0.90918   0.91267   0.91996   0.92371   0.92527
 Alpha virt. eigenvalues --    0.93337   0.93565   0.93940   0.94441   0.94493
 Alpha virt. eigenvalues --    0.94711   0.95917   0.96143   0.96665   0.97089
 Alpha virt. eigenvalues --    0.97229   0.97544   0.98189   0.99320   0.99805
 Alpha virt. eigenvalues --    1.00159   1.00925   1.01181   1.01741   1.02055
 Alpha virt. eigenvalues --    1.02688   1.03449   1.04306   1.05505   1.05758
 Alpha virt. eigenvalues --    1.06444   1.06813   1.07252   1.08247   1.08773
 Alpha virt. eigenvalues --    1.09631   1.11204   1.11842   1.12062   1.12475
 Alpha virt. eigenvalues --    1.13040   1.13845   1.14486   1.14896   1.16274
 Alpha virt. eigenvalues --    1.16807   1.17811   1.19003   1.19845   1.21033
 Alpha virt. eigenvalues --    1.22186   1.22760   1.26074   1.29675   1.29755
 Alpha virt. eigenvalues --    1.32949   1.34308   1.35166   1.36271   1.38417
 Alpha virt. eigenvalues --    1.39620   1.40090   1.41530   1.43333   1.44794
 Alpha virt. eigenvalues --    1.46157   1.46324   1.47614   1.48121   1.48936
 Alpha virt. eigenvalues --    1.49739   1.50012   1.50481   1.51336   1.52596
 Alpha virt. eigenvalues --    1.54377   1.57798   1.60060   1.61622   1.62036
 Alpha virt. eigenvalues --    1.62932   1.64672   1.65470   1.66035   1.67311
 Alpha virt. eigenvalues --    1.68061   1.68538   1.68596   1.69382   1.70942
 Alpha virt. eigenvalues --    1.72444   1.73359   1.74434   1.77378   1.78614
 Alpha virt. eigenvalues --    1.78808   1.82277   1.87134   1.90517   1.91938
 Alpha virt. eigenvalues --    1.93189   1.96940   1.96984   1.98389   1.99851
 Alpha virt. eigenvalues --    2.02042   2.03202   2.05639   2.06253   2.06432
 Alpha virt. eigenvalues --    2.08762   2.09243   2.09749   2.10677   2.12079
 Alpha virt. eigenvalues --    2.12888   2.13586   2.13949   2.14454   2.17976
 Alpha virt. eigenvalues --    2.18571   2.19802   2.20606   2.23330   2.23895
 Alpha virt. eigenvalues --    2.25509   2.25720   2.27998   2.29541   2.31779
 Alpha virt. eigenvalues --    2.32701   2.33909   2.34815   2.35226   2.35938
 Alpha virt. eigenvalues --    2.36674   2.37590   2.37747   2.39187   2.39823
 Alpha virt. eigenvalues --    2.40658   2.41587   2.41958   2.44791   2.48440
 Alpha virt. eigenvalues --    2.49189   2.53552   2.62030   2.62832   2.63027
 Alpha virt. eigenvalues --    2.65021   2.65397   2.66363   2.66978   2.68652
 Alpha virt. eigenvalues --    2.69436   2.69616   2.70999   2.71119   2.71579
 Alpha virt. eigenvalues --    2.71810   2.72758   2.74866   2.75650   2.76792
 Alpha virt. eigenvalues --    2.78482   2.82470   2.83420   2.84713   2.87554
 Alpha virt. eigenvalues --    2.88185   2.88498   2.89634   2.89894   2.90078
 Alpha virt. eigenvalues --    2.91527   2.93653   2.95843   2.96565   2.97137
 Alpha virt. eigenvalues --    3.02028   3.04938   3.05159   3.09035   3.17703
 Alpha virt. eigenvalues --    3.23801   3.24628   3.25950   3.35975   3.45333
 Alpha virt. eigenvalues --    3.49379   3.50148   3.56928   3.59381   3.60926
 Alpha virt. eigenvalues --    3.61917   6.35695
  Beta  occ. eigenvalues -- -101.66965-101.63673-101.61032-101.59402-101.57957
  Beta  occ. eigenvalues -- -101.56987 -19.29224 -14.45563 -14.45217 -14.41138
  Beta  occ. eigenvalues --  -14.40295 -14.36619 -14.35928 -10.36877 -10.36678
  Beta  occ. eigenvalues --  -10.35425 -10.34749 -10.34482 -10.31348 -10.30262
  Beta  occ. eigenvalues --  -10.30261 -10.29234 -10.28322 -10.28039 -10.27759
  Beta  occ. eigenvalues --   -9.60180  -9.56836  -9.54192  -9.52573  -9.51220
  Beta  occ. eigenvalues --   -9.50250  -7.36575  -7.35689  -7.35564  -7.33313
  Beta  occ. eigenvalues --   -7.32252  -7.32242  -7.30613  -7.29647  -7.29628
  Beta  occ. eigenvalues --   -7.29006  -7.28019  -7.28001  -7.27657  -7.26688
  Beta  occ. eigenvalues --   -7.26654  -7.26635  -7.25682  -7.25667  -3.80598
  Beta  occ. eigenvalues --   -2.49305  -2.49203  -2.49068  -2.16703  -1.20216
  Beta  occ. eigenvalues --   -1.14075  -1.07681  -1.06858  -1.01709  -0.99338
  Beta  occ. eigenvalues --   -0.95312  -0.94426  -0.94104  -0.93470  -0.92418
  Beta  occ. eigenvalues --   -0.88390  -0.87414  -0.86452  -0.82974  -0.78753
  Beta  occ. eigenvalues --   -0.76733  -0.75889  -0.71083  -0.70472  -0.68085
  Beta  occ. eigenvalues --   -0.64265  -0.63406  -0.62972  -0.62289  -0.61571
  Beta  occ. eigenvalues --   -0.60702  -0.57973  -0.56399  -0.56019  -0.55375
  Beta  occ. eigenvalues --   -0.54363  -0.53035  -0.52338  -0.50893  -0.50077
  Beta  occ. eigenvalues --   -0.49121  -0.48856  -0.48590  -0.47721  -0.47582
  Beta  occ. eigenvalues --   -0.46750  -0.46677  -0.45843  -0.45379  -0.45151
  Beta  occ. eigenvalues --   -0.44638  -0.44229  -0.43239  -0.42823  -0.41757
  Beta  occ. eigenvalues --   -0.41304  -0.40536  -0.40505  -0.39484  -0.39128
  Beta  occ. eigenvalues --   -0.39068  -0.38670  -0.37758  -0.37202  -0.36856
  Beta  occ. eigenvalues --   -0.35684  -0.35395  -0.34454  -0.31622  -0.30998
  Beta  occ. eigenvalues --   -0.30834  -0.30384  -0.29484  -0.25104  -0.24069
  Beta virt. eigenvalues --   -0.06287  -0.02196  -0.01576  -0.00913  -0.00483
  Beta virt. eigenvalues --    0.00293   0.04019   0.04409   0.04655   0.05733
  Beta virt. eigenvalues --    0.06163   0.06627   0.06862   0.08420   0.09364
  Beta virt. eigenvalues --    0.10609   0.11100   0.11799   0.12120   0.12255
  Beta virt. eigenvalues --    0.12571   0.12915   0.13007   0.13494   0.13679
  Beta virt. eigenvalues --    0.14688   0.14875   0.15010   0.16842   0.17364
  Beta virt. eigenvalues --    0.19449   0.19984   0.20012   0.20798   0.21304
  Beta virt. eigenvalues --    0.22558   0.22850   0.24349   0.25392   0.25867
  Beta virt. eigenvalues --    0.26432   0.27231   0.28243   0.28890   0.31006
  Beta virt. eigenvalues --    0.32138   0.32757   0.33477   0.34857   0.35609
  Beta virt. eigenvalues --    0.36186   0.38155   0.38647   0.39781   0.40549
  Beta virt. eigenvalues --    0.40867   0.42064   0.42245   0.42363   0.42964
  Beta virt. eigenvalues --    0.43733   0.46086   0.46377   0.46472   0.47100
  Beta virt. eigenvalues --    0.47611   0.47937   0.48610   0.49222   0.49553
  Beta virt. eigenvalues --    0.49641   0.50436   0.51143   0.51835   0.51923
  Beta virt. eigenvalues --    0.53006   0.53624   0.54097   0.54974   0.55214
  Beta virt. eigenvalues --    0.55535   0.56200   0.57529   0.58196   0.58568
  Beta virt. eigenvalues --    0.60725   0.61152   0.61669   0.63007   0.63629
  Beta virt. eigenvalues --    0.63866   0.64777   0.64999   0.65726   0.65806
  Beta virt. eigenvalues --    0.66752   0.67240   0.68074   0.68590   0.68778
  Beta virt. eigenvalues --    0.69418   0.69461   0.70585   0.70986   0.71779
  Beta virt. eigenvalues --    0.72380   0.72789   0.73458   0.74294   0.74851
  Beta virt. eigenvalues --    0.75806   0.76456   0.77381   0.77457   0.78836
  Beta virt. eigenvalues --    0.79671   0.81632   0.82680   0.83800   0.85074
  Beta virt. eigenvalues --    0.85280   0.85741   0.86546   0.87021   0.87463
  Beta virt. eigenvalues --    0.89040   0.89479   0.89571   0.89760   0.89880
  Beta virt. eigenvalues --    0.90150   0.90411   0.90869   0.90963   0.91322
  Beta virt. eigenvalues --    0.92108   0.92592   0.92749   0.93388   0.93748
  Beta virt. eigenvalues --    0.94087   0.94479   0.94622   0.94967   0.95962
  Beta virt. eigenvalues --    0.96427   0.96924   0.97319   0.97472   0.98242
  Beta virt. eigenvalues --    0.98397   0.99433   1.00152   1.00406   1.01141
  Beta virt. eigenvalues --    1.01270   1.02004   1.02437   1.02833   1.04150
  Beta virt. eigenvalues --    1.04778   1.05718   1.06015   1.06691   1.07232
  Beta virt. eigenvalues --    1.07386   1.08530   1.09279   1.10320   1.11675
  Beta virt. eigenvalues --    1.12009   1.12347   1.12815   1.13236   1.14041
  Beta virt. eigenvalues --    1.14966   1.15291   1.16421   1.17090   1.17964
  Beta virt. eigenvalues --    1.19231   1.20387   1.21503   1.22354   1.22884
  Beta virt. eigenvalues --    1.26596   1.29780   1.29870   1.33053   1.34403
  Beta virt. eigenvalues --    1.35242   1.36350   1.38481   1.39673   1.40169
  Beta virt. eigenvalues --    1.41644   1.43406   1.44887   1.46252   1.46482
  Beta virt. eigenvalues --    1.47679   1.48188   1.49039   1.49862   1.50226
  Beta virt. eigenvalues --    1.50575   1.51525   1.52789   1.54631   1.57985
  Beta virt. eigenvalues --    1.60242   1.61657   1.62091   1.63003   1.64769
  Beta virt. eigenvalues --    1.65654   1.66169   1.67350   1.68130   1.68643
  Beta virt. eigenvalues --    1.68693   1.69466   1.71050   1.72574   1.73534
  Beta virt. eigenvalues --    1.74575   1.77664   1.78870   1.79150   1.82415
  Beta virt. eigenvalues --    1.87199   1.90658   1.91997   1.93327   1.97036
  Beta virt. eigenvalues --    1.97065   1.98517   1.99960   2.02174   2.03326
  Beta virt. eigenvalues --    2.05700   2.06315   2.06481   2.08774   2.09320
  Beta virt. eigenvalues --    2.09795   2.10774   2.12148   2.12923   2.13617
  Beta virt. eigenvalues --    2.14032   2.14519   2.18022   2.18629   2.19876
  Beta virt. eigenvalues --    2.20684   2.23408   2.23944   2.25629   2.25846
  Beta virt. eigenvalues --    2.28036   2.29621   2.31830   2.32777   2.33943
  Beta virt. eigenvalues --    2.34871   2.35317   2.36058   2.36717   2.37629
  Beta virt. eigenvalues --    2.37813   2.39266   2.39890   2.40770   2.41678
  Beta virt. eigenvalues --    2.41997   2.44822   2.48526   2.49305   2.53582
  Beta virt. eigenvalues --    2.62075   2.62885   2.63074   2.65089   2.65461
  Beta virt. eigenvalues --    2.66408   2.67050   2.68738   2.69549   2.69732
  Beta virt. eigenvalues --    2.71055   2.71178   2.71656   2.71883   2.72866
  Beta virt. eigenvalues --    2.74911   2.75747   2.76921   2.78572   2.82505
  Beta virt. eigenvalues --    2.83493   2.84745   2.87615   2.88263   2.88582
  Beta virt. eigenvalues --    2.89670   2.89948   2.90137   2.91601   2.93710
  Beta virt. eigenvalues --    2.95928   2.96650   2.97190   3.02086   3.04980
  Beta virt. eigenvalues --    3.05205   3.09088   3.17750   3.23861   3.24694
  Beta virt. eigenvalues --    3.25956   3.35989   3.45344   3.49387   3.50153
  Beta virt. eigenvalues --    3.56964   3.59395   3.60967   3.61958   6.34630
          Condensed to atoms (all electrons):
               1          2          3          4          5          6
     1  Li   2.120752   0.217018  -0.034393   0.079180  -0.000015  -0.000003
     2  N    0.217018   6.698588   0.328648  -0.080254  -0.000000  -0.000000
     3  C   -0.034393   0.328648   5.087602   0.230295  -0.000000  -0.000000
     4  Cl   0.079180  -0.080254   0.230295  16.748755  -0.000000  -0.000000
     5  N   -0.000015  -0.000000  -0.000000  -0.000000   6.577914   0.460092
     6  C   -0.000003  -0.000000  -0.000000  -0.000000   0.460092   4.928106
     7  Cl  -0.000003  -0.000000   0.000000   0.000000  -0.053868   0.261846
     8  N   -0.000006   0.000000   0.000000   0.000000   0.000000  -0.000000
     9  C   -0.000009  -0.000000   0.000000  -0.000000  -0.000000  -0.000000
    10  Cl  -0.000002  -0.000000  -0.000000   0.000000   0.000000   0.000000
    11  N    0.003298  -0.073599  -0.082403   0.003639   0.000000   0.000007
    12  C    0.006839  -0.064104   0.565140  -0.056450   0.000000   0.000000
    13  Cl  -0.000152   0.003072  -0.073230   0.006560   0.000000  -0.000000
    14  N   -0.000018   0.000001  -0.000006   0.000000   0.000014  -0.000000
    15  C   -0.000077  -0.000000   0.000003  -0.000000   0.000002  -0.000000
    16  Cl   0.001812  -0.000122  -0.000013  -0.000001   0.000005   0.000001
    17  N   -0.000092   0.000024  -0.000001   0.000000  -0.092000  -0.080944
    18  C    0.000055   0.000006  -0.000001  -0.000000  -0.069408   0.573052
    19  Cl   0.000825  -0.000114  -0.000005   0.000000   0.004517  -0.058826
    20  C   -0.010323   0.507377  -0.094192   0.005973  -0.000000  -0.000018
    21  H   -0.000065  -0.034722   0.004717  -0.000145  -0.000014  -0.000027
    22  C   -0.000015   0.000000  -0.000001  -0.000000   0.000001   0.000000
    23  H    0.000001  -0.000000  -0.000000   0.000000  -0.000000   0.000000
    24  C   -0.000062   0.000001   0.000000  -0.000000   0.565527  -0.108085
    25  H    0.000002   0.000000   0.000000  -0.000000  -0.036677   0.005588
    26  Co   0.000793   0.003513   0.000186  -0.000012   0.011145  -0.001401
    27  C    0.000014  -0.000000   0.000002  -0.000000   0.000001   0.000001
    28  C    0.000002   0.000000   0.000000  -0.000000   0.000011  -0.000077
    29  O   -0.000056  -0.000000  -0.000001   0.000000   0.000001  -0.000004
    30  C   -0.000009   0.000000   0.000000  -0.000000  -0.000000   0.000000
    31  H    0.000004   0.000000  -0.000000  -0.000000  -0.000145   0.000390
    32  H   -0.000000  -0.000000   0.000000   0.000000  -0.000001  -0.000001
    33  H   -0.000006   0.000000  -0.000003   0.000000  -0.000000  -0.000000
    34  H    0.000001  -0.000000  -0.000000   0.000000  -0.000000  -0.000000
    35  H    0.000000   0.000000   0.000000   0.000000  -0.000000  -0.000000
    36  H    0.000063  -0.000001  -0.000004  -0.000000  -0.000001   0.000009
               7          8          9         10         11         12
     1  Li  -0.000003  -0.000006  -0.000009  -0.000002   0.003298   0.006839
     2  N   -0.000000   0.000000  -0.000000  -0.000000  -0.073599  -0.064104
     3  C    0.000000   0.000000   0.000000  -0.000000  -0.082403   0.565140
     4  Cl   0.000000   0.000000  -0.000000   0.000000   0.003639  -0.056450
     5  N   -0.053868   0.000000  -0.000000   0.000000   0.000000   0.000000
     6  C    0.261846  -0.000000  -0.000000   0.000000   0.000007   0.000000
     7  Cl  16.873391  -0.000000  -0.000000  -0.000000   0.000000  -0.000000
     8  N   -0.000000   6.579070   0.455962  -0.053975   0.000002  -0.000000
     9  C   -0.000000   0.455962   4.928159   0.261023  -0.000012   0.000002
    10  Cl  -0.000000  -0.053975   0.261023  16.874817   0.000000  -0.000000
    11  N    0.000000   0.000002  -0.000012   0.000000   6.740745   0.421863
    12  C   -0.000000  -0.000000   0.000002  -0.000000   0.421863   4.905296
    13  Cl  -0.000000   0.000002  -0.000006  -0.000000  -0.056782   0.283869
    14  N    0.000000  -0.092639  -0.076043   0.003935  -0.006742  -0.000659
    15  C   -0.000000  -0.066316   0.577510  -0.077894  -0.000710   0.000228
    16  Cl   0.000000   0.004529  -0.059265   0.007294  -0.001551   0.000020
    17  N    0.003920   0.000001   0.000013   0.000000  -0.007035   0.000128
    18  C   -0.079425   0.000000   0.000000  -0.000000  -0.000983  -0.000001
    19  Cl   0.007669   0.000000  -0.000000  -0.000000  -0.001350  -0.000041
    20  C   -0.000000  -0.000000  -0.000002  -0.000000   0.467089  -0.096336
    21  H   -0.000002  -0.000000  -0.000000  -0.000000  -0.035213   0.004128
    22  C   -0.000000   0.569781  -0.109879   0.005462   0.000211  -0.000065
    23  H   -0.000000  -0.037873   0.005803  -0.000136  -0.000002  -0.000001
    24  C    0.005357   0.000001  -0.000013  -0.000000   0.000259  -0.000001
    25  H   -0.000121  -0.000014  -0.000011  -0.000002   0.000007  -0.000000
    26  Co  -0.000246   0.011093  -0.001259  -0.000294   0.137781  -0.018277
    27  C   -0.000000  -0.000000   0.000000  -0.000000  -0.000228   0.000149
    28  C    0.000001   0.000002   0.000000  -0.000000   0.000109   0.000011
    29  O    0.000000   0.000020  -0.000003   0.000000  -0.002023  -0.000461
    30  C   -0.000000   0.000000  -0.000000   0.000000  -0.000009  -0.000006
    31  H   -0.000014   0.000000   0.000000  -0.000000   0.000019  -0.000002
    32  H   -0.000000  -0.000001  -0.000000  -0.000000  -0.000003   0.000000
    33  H   -0.000000  -0.000000   0.000000  -0.000000  -0.000001  -0.000093
    34  H   -0.000000   0.000000  -0.000000  -0.000000  -0.000000   0.000001
    35  H   -0.000000   0.000000   0.000000  -0.000000  -0.000000   0.000000
    36  H    0.000000   0.000000   0.000000  -0.000000   0.000220   0.000091
              13         14         15         16         17         18
     1  Li  -0.000152  -0.000018  -0.000077   0.001812  -0.000092   0.000055
     2  N    0.003072   0.000001  -0.000000  -0.000122   0.000024   0.000006
     3  C   -0.073230  -0.000006   0.000003  -0.000013  -0.000001  -0.000001
     4  Cl   0.006560   0.000000  -0.000000  -0.000001   0.000000  -0.000000
     5  N    0.000000   0.000014   0.000002   0.000005  -0.092000  -0.069408
     6  C   -0.000000  -0.000000  -0.000000   0.000001  -0.080944   0.573052
     7  Cl  -0.000000   0.000000  -0.000000   0.000000   0.003920  -0.079425
     8  N    0.000002  -0.092639  -0.066316   0.004529   0.000001   0.000000
     9  C   -0.000006  -0.076043   0.577510  -0.059265   0.000013   0.000000
    10  Cl  -0.000000   0.003935  -0.077894   0.007294   0.000000  -0.000000
    11  N   -0.056782  -0.006742  -0.000710  -0.001551  -0.007035  -0.000983
    12  C    0.283869  -0.000659   0.000228   0.000020   0.000128  -0.000001
    13  Cl  16.770256  -0.000158   0.000011  -0.000023   0.000012  -0.000000
    14  N   -0.000158   6.893520   0.385836  -0.064505  -0.008263   0.000167
    15  C    0.000011   0.385836   5.017135   0.237106  -0.000344  -0.000002
    16  Cl  -0.000023  -0.064505   0.237106  16.867731  -0.000730  -0.000023
    17  N    0.000012  -0.008263  -0.000344  -0.000730   6.905371   0.394917
    18  C   -0.000000   0.000167  -0.000002  -0.000023   0.394917   5.067554
    19  Cl  -0.000006   0.000014   0.000000  -0.000002  -0.063264   0.225862
    20  C    0.005076   0.000217  -0.000157   0.001145  -0.001473  -0.000312
    21  H   -0.000097   0.000011  -0.000003  -0.000169   0.002181   0.001874
    22  C    0.000099   0.398229  -0.102830   0.006454   0.000078  -0.000002
    23  H   -0.000026  -0.054524   0.004763  -0.000110  -0.000014   0.000001
    24  C    0.000000  -0.001272  -0.000191   0.000235   0.391981  -0.106396
    25  H   -0.000000   0.001073   0.001432  -0.000395  -0.051825   0.004886
    26  Co   0.006495   0.180366  -0.023109   0.016222   0.170059  -0.020740
    27  C    0.000429   0.000174   0.000001   0.000000   0.000054   0.000299
    28  C    0.000090   0.000002  -0.000007  -0.000000  -0.002606  -0.001685
    29  O   -0.000289  -0.003335   0.000140   0.000014  -0.004497  -0.000337
    30  C   -0.001371  -0.000001   0.000000   0.000000  -0.000006   0.000002
    31  H   -0.000001  -0.000001  -0.000003  -0.000000   0.002964   0.005270
    32  H   -0.000003   0.000021   0.000001   0.000000   0.000030   0.000031
    33  H    0.002867   0.000000   0.000000  -0.000000  -0.000000   0.000000
    34  H   -0.000013   0.000000  -0.000000  -0.000000  -0.000000   0.000000
    35  H    0.000027  -0.000000  -0.000000  -0.000000   0.000000   0.000000
    36  H   -0.000153   0.000006  -0.000001  -0.000000   0.000093  -0.000412
              19         20         21         22         23         24
     1  Li   0.000825  -0.010323  -0.000065  -0.000015   0.000001  -0.000062
     2  N   -0.000114   0.507377  -0.034722   0.000000  -0.000000   0.000001
     3  C   -0.000005  -0.094192   0.004717  -0.000001  -0.000000   0.000000
     4  Cl   0.000000   0.005973  -0.000145  -0.000000   0.000000  -0.000000
     5  N    0.004517  -0.000000  -0.000014   0.000001  -0.000000   0.565527
     6  C   -0.058826  -0.000018  -0.000027   0.000000   0.000000  -0.108085
     7  Cl   0.007669  -0.000000  -0.000002  -0.000000  -0.000000   0.005357
     8  N    0.000000  -0.000000  -0.000000   0.569781  -0.037873   0.000001
     9  C   -0.000000  -0.000002  -0.000000  -0.109879   0.005803  -0.000013
    10  Cl  -0.000000  -0.000000  -0.000000   0.005462  -0.000136  -0.000000
    11  N   -0.001350   0.467089  -0.035213   0.000211  -0.000002   0.000259
    12  C   -0.000041  -0.096336   0.004128  -0.000065  -0.000001  -0.000001
    13  Cl  -0.000006   0.005076  -0.000097   0.000099  -0.000026   0.000000
    14  N    0.000014   0.000217   0.000011   0.398229  -0.054524  -0.001272
    15  C    0.000000  -0.000157  -0.000003  -0.102830   0.004763  -0.000191
    16  Cl  -0.000002   0.001145  -0.000169   0.006454  -0.000110   0.000235
    17  N   -0.063264  -0.001473   0.002181   0.000078  -0.000014   0.391981
    18  C    0.225862  -0.000312   0.001874  -0.000002   0.000001  -0.106396
    19  Cl  16.896472   0.000946  -0.000986   0.000000  -0.000000   0.006360
    20  C    0.000946   4.589410   0.392405  -0.000002  -0.000000  -0.000051
    21  H   -0.000986   0.392405   0.505896  -0.000000   0.000000  -0.000094
    22  C    0.000000  -0.000002  -0.000000   4.665816   0.389745   0.000000
    23  H   -0.000000  -0.000000   0.000000   0.389745   0.587416  -0.000024
    24  C    0.006360  -0.000051  -0.000094   0.000000  -0.000024   4.675354
    25  H   -0.000090  -0.000003   0.000001  -0.000147  -0.000003   0.394443
    26  Co   0.011058  -0.017694  -0.001500  -0.009961   0.000588  -0.013413
    27  C   -0.005947  -0.000028  -0.000000   0.000029  -0.000052   0.000007
    28  C    0.000315  -0.000001  -0.000000   0.000119   0.000126   0.000120
    29  O   -0.000276   0.000065   0.000002  -0.002058   0.003024  -0.000012
    30  C    0.000151   0.000000  -0.000000  -0.000003  -0.000002  -0.000000
    31  H   -0.001085  -0.000002  -0.000000  -0.000018   0.000015  -0.000407
    32  H   -0.000006  -0.000000  -0.000000  -0.000004  -0.000112  -0.000021
    33  H   -0.000002   0.000000   0.000000  -0.000002  -0.000002  -0.000000
    34  H   -0.000003   0.000000   0.000000  -0.000006   0.000037  -0.000000
    35  H   -0.000002  -0.000000  -0.000000   0.000000   0.000000  -0.000000
    36  H    0.009054  -0.000020   0.000002  -0.000001   0.000005  -0.000001
              25         26         27         28         29         30
     1  Li   0.000002   0.000793   0.000014   0.000002  -0.000056  -0.000009
     2  N    0.000000   0.003513  -0.000000   0.000000  -0.000000   0.000000
     3  C    0.000000   0.000186   0.000002   0.000000  -0.000001   0.000000
     4  Cl  -0.000000  -0.000012  -0.000000  -0.000000   0.000000  -0.000000
     5  N   -0.036677   0.011145   0.000001   0.000011   0.000001  -0.000000
     6  C    0.005588  -0.001401   0.000001  -0.000077  -0.000004   0.000000
     7  Cl  -0.000121  -0.000246  -0.000000   0.000001   0.000000  -0.000000
     8  N   -0.000014   0.011093  -0.000000   0.000002   0.000020   0.000000
     9  C   -0.000011  -0.001259   0.000000   0.000000  -0.000003  -0.000000
    10  Cl  -0.000002  -0.000294  -0.000000  -0.000000   0.000000   0.000000
    11  N    0.000007   0.137781  -0.000228   0.000109  -0.002023  -0.000009
    12  C   -0.000000  -0.018277   0.000149   0.000011  -0.000461  -0.000006
    13  Cl  -0.000000   0.006495   0.000429   0.000090  -0.000289  -0.001371
    14  N    0.001073   0.180366   0.000174   0.000002  -0.003335  -0.000001
    15  C    0.001432  -0.023109   0.000001  -0.000007   0.000140   0.000000
    16  Cl  -0.000395   0.016222   0.000000  -0.000000   0.000014   0.000000
    17  N   -0.051825   0.170059   0.000054  -0.002606  -0.004497  -0.000006
    18  C    0.004886  -0.020740   0.000299  -0.001685  -0.000337   0.000002
    19  Cl  -0.000090   0.011058  -0.005947   0.000315  -0.000276   0.000151
    20  C   -0.000003  -0.017694  -0.000028  -0.000001   0.000065   0.000000
    21  H    0.000001  -0.001500  -0.000000  -0.000000   0.000002  -0.000000
    22  C   -0.000147  -0.009961   0.000029   0.000119  -0.002058  -0.000003
    23  H   -0.000003   0.000588  -0.000052   0.000126   0.003024  -0.000002
    24  C    0.394443  -0.013413   0.000007   0.000120  -0.000012  -0.000000
    25  H    0.550787  -0.000144   0.000001  -0.000017  -0.000004  -0.000000
    26  Co  -0.000144  15.657632  -0.013912  -0.013766   0.117075   0.000462
    27  C    0.000001  -0.013912   4.758235   0.344898   0.128194   0.393655
    28  C   -0.000017  -0.013766   0.344898   4.834305   0.133962  -0.033390
    29  O   -0.000004   0.117075   0.128194   0.133962   8.226340  -0.028972
    30  C   -0.000000   0.000462   0.393655  -0.033390  -0.028972   4.890107
    31  H    0.000002  -0.005016  -0.018944   0.388057  -0.023306   0.001398
    32  H   -0.000000   0.000691  -0.021071   0.388994  -0.025989  -0.002985
    33  H    0.000000   0.001562  -0.027318   0.004058  -0.002860   0.385623
    34  H   -0.000000   0.000799  -0.030522  -0.004295  -0.000432   0.388903
    35  H    0.000000   0.000720  -0.028080  -0.002511   0.002930   0.376010
    36  H   -0.000000  -0.001638   0.388391  -0.026796  -0.025800  -0.037933
              31         32         33         34         35         36
     1  Li   0.000004  -0.000000  -0.000006   0.000001   0.000000   0.000063
     2  N    0.000000  -0.000000   0.000000  -0.000000   0.000000  -0.000001
     3  C   -0.000000   0.000000  -0.000003  -0.000000   0.000000  -0.000004
     4  Cl  -0.000000   0.000000   0.000000   0.000000   0.000000  -0.000000
     5  N   -0.000145  -0.000001  -0.000000  -0.000000  -0.000000  -0.000001
     6  C    0.000390  -0.000001  -0.000000  -0.000000  -0.000000   0.000009
     7  Cl  -0.000014  -0.000000  -0.000000  -0.000000  -0.000000   0.000000
     8  N    0.000000  -0.000001  -0.000000   0.000000   0.000000   0.000000
     9  C    0.000000  -0.000000   0.000000  -0.000000   0.000000   0.000000
    10  Cl  -0.000000  -0.000000  -0.000000  -0.000000  -0.000000  -0.000000
    11  N    0.000019  -0.000003  -0.000001  -0.000000  -0.000000   0.000220
    12  C   -0.000002   0.000000  -0.000093   0.000001   0.000000   0.000091
    13  Cl  -0.000001  -0.000003   0.002867  -0.000013   0.000027  -0.000153
    14  N   -0.000001   0.000021   0.000000   0.000000  -0.000000   0.000006
    15  C   -0.000003   0.000001   0.000000  -0.000000  -0.000000  -0.000001
    16  Cl  -0.000000   0.000000  -0.000000  -0.000000  -0.000000  -0.000000
    17  N    0.002964   0.000030  -0.000000  -0.000000   0.000000   0.000093
    18  C    0.005270   0.000031   0.000000   0.000000   0.000000  -0.000412
    19  Cl  -0.001085  -0.000006  -0.000002  -0.000003  -0.000002   0.009054
    20  C   -0.000002  -0.000000   0.000000   0.000000  -0.000000  -0.000020
    21  H   -0.000000  -0.000000   0.000000   0.000000  -0.000000   0.000002
    22  C   -0.000018  -0.000004  -0.000002  -0.000006   0.000000  -0.000001
    23  H    0.000015  -0.000112  -0.000002   0.000037   0.000000   0.000005
    24  C   -0.000407  -0.000021  -0.000000  -0.000000  -0.000000  -0.000001
    25  H    0.000002  -0.000000   0.000000  -0.000000   0.000000  -0.000000
    26  Co  -0.005016   0.000691   0.001562   0.000799   0.000720  -0.001638
    27  C   -0.018944  -0.021071  -0.027318  -0.030522  -0.028080   0.388391
    28  C    0.388057   0.388994   0.004058  -0.004295  -0.002511  -0.026796
    29  O   -0.023306  -0.025989  -0.002860  -0.000432   0.002930  -0.025800
    30  C    0.001398  -0.002985   0.385623   0.388903   0.376010  -0.037933
    31  H    0.513594  -0.033436  -0.000116   0.000077   0.000118  -0.002944
    32  H   -0.033436   0.543310   0.000058   0.002314   0.000058   0.001553
    33  H   -0.000116   0.000058   0.552005  -0.027176  -0.026734  -0.003461
    34  H    0.000077   0.002314  -0.027176   0.560714  -0.024557   0.003978
    35  H    0.000118   0.000058  -0.026734  -0.024557   0.572535  -0.000359
    36  H   -0.002944   0.001553  -0.003461   0.003978  -0.000359   0.545508
          Atomic-Atomic Spin Densities.
               1          2          3          4          5          6
     1  Li   0.000299   0.000086   0.000145  -0.000013  -0.000001   0.000000
     2  N    0.000086   0.002407   0.000563  -0.000049   0.000000   0.000000
     3  C    0.000145   0.000563   0.005429  -0.001227   0.000000  -0.000000
     4  Cl  -0.000013  -0.000049  -0.001227   0.002483   0.000000  -0.000000
     5  N   -0.000001   0.000000   0.000000   0.000000   0.001886   0.000235
     6  C    0.000000   0.000000  -0.000000  -0.000000   0.000235   0.011895
     7  Cl   0.000000  -0.000000  -0.000000  -0.000000  -0.000017  -0.001512
     8  N   -0.000000   0.000000   0.000000  -0.000000   0.000000  -0.000000
     9  C    0.000000   0.000000   0.000000  -0.000000   0.000000  -0.000000
    10  Cl   0.000000  -0.000000  -0.000000   0.000000  -0.000000   0.000000
    11  N    0.000253  -0.001527  -0.000504   0.000170  -0.000001   0.000001
    12  C   -0.000050   0.000222   0.000021  -0.000220   0.000000   0.000000
    13  Cl  -0.000018  -0.000025  -0.000148   0.000010   0.000000   0.000000
    14  N   -0.000032  -0.000001   0.000002   0.000000  -0.000002   0.000001
    15  C    0.000001  -0.000000  -0.000001   0.000000  -0.000000   0.000000
    16  Cl  -0.000007  -0.000003  -0.000002   0.000000  -0.000001  -0.000000
    17  N   -0.000037  -0.000003  -0.000000   0.000000  -0.002133   0.000152
    18  C   -0.000005  -0.000001  -0.000000   0.000000   0.000810   0.000382
    19  Cl  -0.000005  -0.000003  -0.000001   0.000000  -0.000020  -0.000064
    20  C   -0.000175   0.000136  -0.000204  -0.000046  -0.000000  -0.000001
    21  H    0.000009  -0.000250   0.000005   0.000002   0.000000  -0.000006
    22  C    0.000000  -0.000000  -0.000000   0.000000  -0.000000  -0.000000
    23  H    0.000000  -0.000000  -0.000000   0.000000   0.000000   0.000000
    24  C    0.000002  -0.000000  -0.000000  -0.000000   0.000877  -0.000930
    25  H    0.000000   0.000000   0.000000  -0.000000  -0.000048   0.000013
    26  Co   0.000022   0.000162   0.000094   0.000058   0.000297   0.000192
    27  C   -0.000001  -0.000000  -0.000000   0.000000   0.000000   0.000000
    28  C    0.000001   0.000000   0.000000  -0.000000  -0.000001   0.000002
    29  O   -0.000008  -0.000000  -0.000000   0.000000  -0.000000   0.000001
    30  C    0.000000   0.000000   0.000000  -0.000000  -0.000000  -0.000000
    31  H    0.000000   0.000000  -0.000000   0.000000  -0.000001  -0.000039
    32  H   -0.000000  -0.000000  -0.000000   0.000000   0.000000   0.000000
    33  H   -0.000000  -0.000000   0.000000  -0.000000  -0.000000   0.000000
    34  H    0.000000   0.000000  -0.000000  -0.000000  -0.000000  -0.000000
    35  H    0.000000  -0.000000  -0.000000   0.000000   0.000000  -0.000000
    36  H    0.000002   0.000000  -0.000000   0.000000   0.000000  -0.000001
               7          8          9         10         11         12
     1  Li   0.000000  -0.000000   0.000000   0.000000   0.000253  -0.000050
     2  N   -0.000000   0.000000   0.000000  -0.000000  -0.001527   0.000222
     3  C   -0.000000   0.000000   0.000000  -0.000000  -0.000504   0.000021
     4  Cl  -0.000000  -0.000000  -0.000000   0.000000   0.000170  -0.000220
     5  N   -0.000017   0.000000   0.000000  -0.000000  -0.000001   0.000000
     6  C   -0.001512  -0.000000  -0.000000   0.000000   0.000001   0.000000
     7  Cl   0.003296   0.000000  -0.000000   0.000000   0.000000  -0.000000
     8  N    0.000000   0.006386   0.001974  -0.000037  -0.000001  -0.000000
     9  C   -0.000000   0.001974   0.019785  -0.002054   0.000002  -0.000001
    10  Cl   0.000000  -0.000037  -0.002054   0.003941   0.000000   0.000000
    11  N    0.000000  -0.000001   0.000002   0.000000   0.092492   0.000391
    12  C   -0.000000  -0.000000  -0.000001   0.000000   0.000391  -0.000595
    13  Cl  -0.000000  -0.000000  -0.000001  -0.000000  -0.000427   0.000576
    14  N    0.000000  -0.002782  -0.000031   0.000199  -0.002444  -0.000020
    15  C    0.000000   0.000508  -0.001277  -0.000186   0.000017   0.000003
    16  Cl   0.000000  -0.000031  -0.000034  -0.000072   0.000055   0.000000
    17  N    0.000213  -0.000000   0.000003   0.000000  -0.002452   0.000032
    18  C   -0.000268   0.000000   0.000000  -0.000000  -0.000071  -0.000000
    19  Cl  -0.000078   0.000000  -0.000000  -0.000000  -0.000014   0.000002
    20  C    0.000000  -0.000000  -0.000000   0.000000  -0.000248  -0.000257
    21  H    0.000000   0.000000  -0.000000   0.000000  -0.000373  -0.000005
    22  C    0.000000  -0.001146  -0.001826  -0.000061  -0.000006   0.000006
    23  H   -0.000000  -0.000013  -0.000008  -0.000000   0.000000   0.000000
    24  C   -0.000089  -0.000000  -0.000002   0.000000   0.000024  -0.000000
    25  H    0.000001  -0.000001  -0.000006   0.000000   0.000002  -0.000000
    26  Co   0.000011   0.000483   0.000242   0.000005  -0.040595  -0.000407
    27  C   -0.000000   0.000000  -0.000000  -0.000000  -0.000023   0.000013
    28  C    0.000000   0.000000  -0.000000  -0.000000   0.000034  -0.000000
    29  O    0.000000  -0.000003   0.000000   0.000000  -0.000645  -0.000023
    30  C    0.000000  -0.000000   0.000000   0.000000   0.000000  -0.000001
    31  H    0.000001   0.000000   0.000000  -0.000000   0.000004   0.000000
    32  H   -0.000000  -0.000000  -0.000000   0.000000  -0.000001  -0.000000
    33  H   -0.000000  -0.000000   0.000000   0.000000  -0.000002  -0.000002
    34  H    0.000000   0.000000  -0.000000  -0.000000   0.000000   0.000000
    35  H   -0.000000   0.000000  -0.000000  -0.000000   0.000000   0.000000
    36  H    0.000000   0.000000  -0.000000  -0.000000   0.000046   0.000007
              13         14         15         16         17         18
     1  Li  -0.000018  -0.000032   0.000001  -0.000007  -0.000037  -0.000005
     2  N   -0.000025  -0.000001  -0.000000  -0.000003  -0.000003  -0.000001
     3  C   -0.000148   0.000002  -0.000001  -0.000002  -0.000000  -0.000000
     4  Cl   0.000010   0.000000   0.000000   0.000000   0.000000   0.000000
     5  N    0.000000  -0.000002  -0.000000  -0.000001  -0.002133   0.000810
     6  C    0.000000   0.000001   0.000000  -0.000000   0.000152   0.000382
     7  Cl  -0.000000   0.000000   0.000000   0.000000   0.000213  -0.000268
     8  N   -0.000000  -0.002782   0.000508  -0.000031  -0.000000   0.000000
     9  C   -0.000001  -0.000031  -0.001277  -0.000034   0.000003   0.000000
    10  Cl  -0.000000   0.000199  -0.000186  -0.000072   0.000000  -0.000000
    11  N   -0.000427  -0.002444   0.000017   0.000055  -0.002452  -0.000071
    12  C    0.000576  -0.000020   0.000003   0.000000   0.000032  -0.000000
    13  Cl   0.000769   0.000064   0.000002  -0.000000   0.000000   0.000000
    14  N    0.000064   0.130466   0.000225  -0.000626  -0.002610   0.000040
    15  C    0.000002   0.000225  -0.010679   0.002113  -0.000055  -0.000001
    16  Cl  -0.000000  -0.000626   0.002113   0.001940  -0.000002  -0.000000
[...]
 0.,-0.00000121,0.00000043,-0.00000096,-0.00001543,0.00000713,-0.000005
 86,0.00005755,0.00002662,-0.00003492,-0.00006171,0.00000672,0.00015160
 ,0.00001956,-0.00000701,-0.00007699,-0.00006416,0.00002475,-0.00005315
 ,-0.00000166,0.00001221,0.00006979,0.00000935,-0.00000986,-0.00002382,
 -0.00003207,-0.00018280,0.00025265,0.00001028,0.00074301,-0.00048178,0
 .00021456,-0.00040949,0.00030070,-0.00001210,-0.00004950,-0.00000967,-
 0.00001994,-0.00000144,-0.00001856,0.00003278,-0.00003017,-0.00005661,
 0.00000271,-0.00001067,-0.00004574,0.00009130,-0.00007138,0.00018339,0
 .00004116,-0.00001378,0.00006461,-0.00060097,-0.00000668,0.00066529,-0
 .01521254,-0.00592188,0.01913924,-0.05495727,-0.09394176,0.07934011,-0
 .00537811,-0.00697988,0.00266609,-0.00190914,-0.00278006,-0.00190920,0
 .06652156,0.09884001,0.,0.,0.,0.,0.,0.,0.00000434,0.00001002,-0.000002
 78,0.00000753,0.00001926,-0.00000306,0.,0.,0.,0.00035301,0.00052809,-0
 .00025984,-0.00023757,-0.00003979,0.00007891,0.,0.,0.,-0.00000410,0.00
 000146,-0.00003404,0.00000597,-0.00000899,0.00000150,0.00004381,0.0001
 1043,-0.00003079,-0.00003702,0.00002183,0.00012851,0.00000531,-0.00003
 143,-0.00005868,0.00008593,-0.00002325,-0.00013276,-0.00004976,0.00004
 042,0.00001746,0.00001654,-0.00000961,-0.00002442,-0.00044185,0.000369
 46,-0.00029213,0.00079839,-0.00056500,-0.00007343,-0.00004208,-0.00013
 623,-0.00030783,-0.00002263,-0.00005889,-0.00001172,-0.00001182,-0.000
 02230,-0.00001895,0.00002090,0.00001368,0.00011783,-0.00000576,-0.0000
 2397,-0.00005709,-0.00022464,-0.00004130,-0.00008531,0.00003580,0.0000
 0218,0.00006629,-0.00052049,-0.00032087,0.00124951,0.00109419,-0.00201
 507,-0.00523755,0.12255478,0.08799101,-0.24145095,-0.01006027,-0.00813
 505,0.01489050,0.00069085,0.00089963,0.00046152,-0.12303296,-0.0879439
 6,0.24100990,0.,0.,0.,0.,0.,0.,0.00001768,0.00000005,-0.00003913,-0.00
 000883,-0.00003179,-0.00000549,0.,0.,0.,0.00011374,0.00014058,-0.00011
 265,-0.00004309,-0.00000892,0.00001981,0.,0.,0.,-0.00005930,0.00005150
 ,0.00010839,-0.00000668,0.00000508,0.00000565,-0.00007261,-0.00012643,
 -0.00041818,0.00007186,0.00015779,-0.00002124,-0.00004383,-0.00004617,
 0.00000577,-0.00024057,0.00023916,0.00004005,0.00014753,-0.00001824,0.
 00015083,-0.00000077,0.00001441,0.00002095,0.00007918,0.00018216,0.000
 13244,0.00000913,0.00014844,-0.00001284,0.00006220,-0.00011057,0.00005
 843,-0.00008455,-0.00002076,0.00016197,-0.00001525,-0.00000635,-0.0000
 1521,0.00000634,-0.00009820,-0.00041031,-0.00001562,-0.00005489,0.0000
 1848,0.00002412,-0.00004790,0.00005104,-0.00000405,-0.00000858,0.00000
 155,0.00046621,-0.00114800,0.00162064,-0.00725830,0.00389858,0.0112642
 8,-0.05411893,0.03583064,0.05141735,-0.00015828,-0.02687945,-0.0290643
 7,0.00037130,-0.00169408,-0.00027092,0.00191890,0.01014882,0.00909316,
 0.05702827,0.,0.,0.,0.,0.,0.,0.00001640,0.00002343,-0.00001355,-0.0000
 0749,-0.00002813,-0.00000459,0.,0.,0.,0.00002497,0.00009964,-0.0000556
 1,-0.00001127,-0.00000402,0.00000762,0.,0.,0.,0.00000711,0.00000504,0.
 00002015,-0.00001852,0.00000477,-0.00000698,-0.00008863,-0.00003630,-0
 .00014914,0.00007320,0.00010101,-0.00001568,-0.00002260,-0.00002269,0.
 00000138,-0.00007375,0.00004319,-0.00003817,0.00001292,0.00001583,0.00
 005000,0.00000133,-0.00000123,-0.00001442,0.00002015,0.00015908,0.0001
 5084,0.00018708,-0.00005106,0.00003689,0.00004826,0.00000576,-0.000032
 24,-0.00003923,0.00002262,0.00011539,-0.00000539,-0.00000556,-0.000005
 99,0.00001594,-0.00002443,-0.00001933,-0.00001521,0.00001258,-0.000060
 82,-0.00000567,0.00002601,-0.00002519,0.00001001,-0.00000022,0.0000186
 2,0.00021173,-0.00040900,0.00073638,0.00254674,-0.01313366,-0.02271599
 ,0.02534034,-0.15127897,-0.13341086,-0.00354585,-0.00739086,-0.0026114
 6,0.00167697,0.00173292,-0.00075307,-0.00073281,0.01015540,0.00989463,
 -0.02216100,0.16189210,0.,0.,0.,0.,0.,0.,0.00000891,0.00000391,-0.0000
 0995,-0.00000865,-0.00002374,-0.00000164,0.,0.,0.,-0.00010214,-0.00007
 477,0.00006550,0.00006567,0.00001749,-0.00002696,0.,0.,0.,-0.00004051,
 0.00003118,0.00008944,-0.00000184,0.00000199,0.00000666,-0.00004604,-0
 .00009351,-0.00012851,0.00002802,0.00003502,-0.00005242,-0.00000965,-0
 .00001043,0.00002302,-0.00017752,0.00016027,0.00006262,0.00012742,-0.0
 0003169,0.00006528,-0.00001162,0.00001891,0.00003747,0.00008856,-0.000
 00879,-0.00032537,-0.00033240,-0.00003172,0.00002507,-0.00004175,0.000
 05538,-0.00002733,-0.00001904,0.00001263,0.00004764,0.00000524,0.00000
 643,0.00000765,-0.00001619,-0.00002562,-0.00026464,-0.00006971,-0.0000
 8029,0.00004698,0.00004634,-0.00016394,0.00010296,-0.00002806,-0.00000
 096,-0.00004468,0.00076428,-0.00031360,0.00054026,-0.00372557,0.007130
 31,0.01043611,0.04695219,-0.13380678,-0.23867395,-0.00311519,-0.008067
 29,-0.00497835,-0.00077682,-0.00022381,0.00058888,0.00273832,-0.013760
 74,-0.01095381,-0.04346285,0.14755117,0.24304354,0.,0.,0.,0.,0.,0.,-0.
 00003183,-0.00010606,0.00001717,0.00001637,0.00004295,0.00000600,0.,0.
 ,0.,0.00001114,-0.00001465,0.00000345,-0.00002015,-0.00000100,0.000007
 81,0.,0.,0.,-0.00002018,0.00000883,-0.00001702,0.00002732,-0.00000884,
 0.00001126,-0.00003640,0.00005583,0.00004547,0.00024831,0.00005127,-0.
 00019530,-0.00039850,-0.00008650,-0.00003663,0.00006524,-0.00004598,0.
 00003669,-0.00000721,-0.00001308,-0.00004826,-0.00000025,0.00000634,0.
 00002150,-0.00003861,-0.00001272,0.00005849,0.00009035,-0.00006786,0.0
 0000482,-0.00002390,0.00003697,-0.00001482,-0.00000765,0.00001762,0.00
 004946,0.00000026,0.00000184,0.00000593,-0.00004407,0.00002055,0.00001
 719,0.00000284,0.00002669,0.00001594,-0.00001115,0.00006138,-0.0000277
 3,-0.00000018,0.00000447,-0.00000321,0.00000362,-0.00003655,-0.0002975
 7,-0.00346351,-0.00367532,-0.00124359,0.00011664,0.00172352,0.00005150
 ,0.00166949,-0.00022147,0.00114943,-0.12792726,-0.12378784,-0.01555668
 ,0.00007793,-0.00009339,-0.00017702,0.00001072,-0.00023471,0.00002249,
 0.13312192,0.,0.,0.,0.,0.,0.,0.00005246,0.00011176,-0.00002402,-0.0000
 0873,-0.00002362,-0.00001493,0.,0.,0.,0.00001561,0.00001930,-0.0000246
 5,-0.00000359,-0.00000042,0.00000481,0.,0.,0.,0.00001117,-0.00001537,0
 .00000277,-0.00000444,0.00000208,-0.00000198,0.00005015,0.00005870,-0.
 00005326,-0.00025978,-0.00010100,0.00042230,-0.00008144,-0.00006695,-0
 .00040759,0.00004046,0.00005458,0.00000578,-0.00000198,0.00000096,-0.0
 0000640,0.00000243,0.00000553,-0.00000331,0.00004559,0.00005799,0.0000
 7324,0.00001496,0.00001671,0.00000153,0.00000794,-0.00001081,0.0000271
 0,-0.00000401,-0.00003588,-0.00006015,-0.00000740,-0.00001081,-0.00001
 556,-0.00000157,0.00001451,-0.00001475,-0.00002766,-0.00003970,0.00000
 577,-0.00000331,0.00000726,0.00000376,-0.00000537,-0.00000491,-0.00000
 288,-0.00028108,-0.00032770,-0.00004661,-0.00631718,-0.01291850,-0.000
 59492,-0.00218588,0.00040603,0.00235293,0.00111068,0.00107637,-0.00046
 585,-0.12296289,-0.24204909,-0.02809650,0.00072430,-0.00038608,0.00026
 239,-0.00015342,0.00053924,-0.00013033,0.13554776,0.25917510,0.,0.,0.,
 0.,0.,0.,-0.00003125,-0.00012859,-0.00003838,0.00000886,0.00003609,0.0
 0001943,0.,0.,0.,-0.00001102,-0.00001575,0.00002034,0.00001171,-0.0000
 0057,-0.00000529,0.,0.,0.,-0.00000903,0.00000320,-0.00000841,0.0000011
 5,0.00000041,-0.00000208,0.00000700,-0.00006166,0.00004430,0.00009605,
 -0.00000280,-0.00045970,0.00007074,-0.00001095,0.00025492,-0.00000811,
 -0.00006351,-0.00002519,-0.00001859,0.00001205,0.00002638,0.00000691,-
 0.00001247,-0.00001778,-0.00002694,-0.00006857,-0.00011256,-0.00007948
 ,0.00005107,-0.00001516,0.00000164,-0.00003649,0.00000804,0.00000258,0
 .00003997,0.00005882,0.00000576,0.00001444,0.00001431,0.00001581,0.000
 00201,0.00003446,0.00000613,0.00000531,-0.00002055,0.00000118,-0.00003
 686,0.00001524,0.00000401,0.00000304,0.00000259,0.00020374,0.00038946,
 0.00022608,0.01785046,0.03128585,0.00392785,0.00299955,0.00108925,-0.0
 0531545,-0.00152572,-0.00296812,0.00224890,-0.01734824,-0.02961039,-0.
 05378700,-0.00093469,0.00124334,-0.00017990,0.00003736,0.00003205,0.00
 002151,0.01720225,0.02745941,0.05610064,0.,0.,0.,0.,0.,0.,-0.00001417,
 -0.00001721,0.00001625,0.00000462,0.00001281,0.00000092,0.,0.,0.,0.000
 03423,0.00000451,-0.00000665,-0.00001839,-0.00000526,0.00000652,0.,0.,
 0.,-0.00002509,0.00001641,-0.00000316,0.00002262,-0.00000731,0.0000110
 4,0.00000521,0.00001457,0.00002521,0.00001527,0.00001506,0.00000864,-0
 .00003823,-0.00001326,-0.00001120,0.00001930,-0.00001623,0.00003131,0.
 00001625,-0.00001057,-0.00001906,-0.00000136,0.00000628,0.00002285,-0.
 00002731,-0.00003149,0.00000610,-0.00002852,0.00005813,-0.00001094,0.0
 0000045,-0.00003993,0.00004838,0.00000467,-0.00001089,-0.00002453,-0.0
 0000088,0.00000077,-0.00000243,-0.00004268,-0.00000622,-0.00003484,0.0
 0001474,0.00003766,-0.00000432,-0.00000532,-0.00000013,-0.00000333,0.0
 0000376,0.00000283,0.00000447,0.00000033,0.00000402,-0.00015333,-0.004
 99285,0.00426035,0.00227181,0.00042902,0.00097904,0.00019608,0.0008163
 3,-0.00120850,-0.00064571,-0.11761994,0.08594333,0.08360717,-0.0001015
 1,-0.00015218,-0.00021883,0.00006724,-0.00061789,0.00021209,0.01041866
 ,-0.01093333,-0.01186246,0.12188280,0.,0.,0.,0.,0.,0.,-0.00000855,0.00
 001031,0.00002574,0.00000087,-0.00000007,-0.00000597,0.,0.,0.,0.000000
 71,-0.00000295,0.00000214,0.00000058,-0.00000008,-0.00000068,0.,0.,0.,
 -0.00000041,0.00000887,0.00000775,-0.00000659,0.00000201,-0.00000044,-
 0.00000776,0.00000568,0.00000047,0.00002150,0.00003305,0.00004155,-0.0
 0008437,-0.00003867,-0.00007595,-0.00005488,0.00002250,0.00001462,0.00
 002553,-0.00000785,0.00000839,-0.00000373,0.00000485,0.00000916,0.0000
 1501,-0.00000410,-0.00003419,-0.00003279,0.00005208,-0.00002373,-0.000
 04384,-0.00001639,0.00012740,0.00000011,-0.00001553,-0.00000822,-0.000
 00082,-0.00000127,-0.00000011,0.00001294,-0.00003509,-0.00003789,0.000
 02311,0.00003344,0.00000174,0.00000707,-0.00001777,0.00000937,0.000001
 92,0.00000087,0.00000418,0.00006440,-0.00000765,0.00002796,-0.00917174
 ,0.00976939,0.01076859,-0.00081127,0.00162662,0.00087063,-0.00026493,0
 .00073842,-0.00155034,0.08803657,-0.16091182,-0.10514795,-0.00001306,-
 0.00001556,-0.00006892,-0.00014434,-0.00009590,-0.00026178,0.01496150,
 -0.01491684,-0.01496114,-0.09419862,0.16923305,0.,0.,0.,0.,0.,0.,-0.00
 000639,-0.00001456,0.00001265,-0.00000161,-0.00000418,0.00000332,0.,0.
 ,0.,-0.00004509,-0.00003953,0.00003029,-0.00000306,0.00000511,-0.00000
 332,0.,0.,0.,-0.00003363,0.00002511,0.00001144,0.00002771,-0.00000714,
 0.00001635,-0.00007416,0.00001344,-0.00001046,0.00008538,0.00005853,-0
 .00010284,-0.00005404,-0.00002369,0.00004431,-0.00001377,0.00000158,0.
 00004628,0.00004151,-0.00002302,-0.00001730,-0.00000972,0.00001744,0.0
 0004362,-0.00004788,-0.00000606,0.00010017,0.00017468,-0.00022356,0.00
 004746,0.00002277,0.00013613,-0.00025457,-0.00000263,0.00002803,0.0000
 3895,0.00000662,-0.00000257,0.00000746,-0.00008519,-0.00001208,-0.0001
 2120,-0.00000689,0.00004737,-0.00000224,0.00000102,0.00009616,-0.00004
 590,-0.00000197,0.00000843,-0.00000801,0.00017190,-0.00013750,-0.00020
 624,0.01692032,-0.02005148,-0.02117319,0.00095634,-0.00137224,0.001130
 99,-0.00140164,-0.00089962,0.00293039,0.08137993,-0.10204282,-0.146212
 07,0.00012929,0.00008205,0.00030823,-0.00033256,0.00090841,0.00011786,
 0.00092664,-0.00133140,-0.00201344,-0.09199091,0.11079807,0.15835846,0
 .,0.,0.,0.,0.,0.,0.00002994,0.00007612,-0.00000272,-0.00000851,-0.0000
 2595,-0.00001030,0.,0.,0.,-0.00002031,-0.00000405,0.00000804,0.0000138
 8,0.00000175,-0.00000595,0.,0.,0.,0.00002995,-0.00001894,0.00000336,-0
 .00001616,0.00000478,-0.00000858,0.00001172,0.00000823,-0.00003472,-0.
 00013869,-0.00004456,0.00023087,0.00002748,0.00000448,-0.00016672,0.00
 002804,0.00002388,0.00001187,-0.00001046,0.00000359,-0.00000665,-0.000
 00011,-0.00000338,-0.00001491,0.00001164,0.00002186,-0.00000494,-0.000
 01107,-0.00000457,0.00000753,0.00001020,0.00000485,-0.00002103,0.00000
 183,-0.00001005,-0.00003160,-0.00000242,-0.00000433,-0.00000563,0.0000
 2619,0.00001181,0.00003942,-0.00000703,-0.00003175,0.00000804,-0.00000
 037,-0.00001368,0.00000861,0.00000047,-0.00000173,0.00000048,-0.000074
 88,-0.00015278,-0.00009709,0.00561426,-0.00108733,0.00229719,0.0002109
 4,0.00075475,-0.00085589,0.00224355,-0.00199517,0.00249260,-0.25710348
 ,0.05641177,-0.10205416,-0.00008431,0.00010213,-0.00000091,-0.00008713
 ,-0.00007042,-0.00013363,-0.01372599,0.00509916,-0.00628690,-0.0119111
 9,0.00174719,-0.00674120,0.27481374,0.,0.,0.,0.,0.,0.,0.00001872,0.000
 05550,0.00000404,-0.00000255,-0.00000561,-0.00000527,0.,0.,0.,0.000032
 85,-0.00003211,0.00000264,-0.00003159,-0.00000472,0.00000804,0.,0.,0.,
 -0.00000832,-0.00000409,-0.00001871,0.00002550,-0.00000836,0.00001086,
 0.00003217,0.00006723,0.00001132,-0.00015634,-0.00005569,0.00024150,-0
 .00001851,-0.00003211,-0.00020096,0.00011728,-0.00001921,0.00004831,-0
 .00001130,-0.00001140,-0.00005924,-0.00000090,0.00001001,0.00002038,-0
 .00004648,-0.00005659,0.00015353,0.00007332,-0.00002306,-0.00000777,-0
 .00001090,0.00001298,-0.00000537,0.00000936,-0.00002908,-0.00008259,-0
 .00000094,-0.00000459,-0.00000695,-0.00006659,0.00003412,0.00000538,-0
 .00001502,0.00001406,0.00000756,-0.00000272,0.00008749,-0.00003060,0.0
 0000127,0.00000224,-0.00000006,-0.00030779,-0.00021913,-0.00048310,0.0
 1334142,-0.00407138,0.00380883,0.00113836,0.00038745,-0.00090445,-0.00
 053495,-0.00171570,0.00461564,0.05556756,-0.06237851,0.02766689,-0.000
 07297,0.00011704,-0.00001257,0.00002357,-0.00018948,0.00008884,-0.0241
 0849,0.00875391,-0.01276054,0.01656034,-0.00450530,0.01050411,-0.06130
 018,0.06350676,0.,0.,0.,0.,0.,0.,0.00000832,0.00000495,-0.00001647,-0.
 00001015,-0.00003060,-0.00000183,0.,0.,0.,-0.00002886,0.00006247,-0.00
 001617,0.00004915,0.00000338,-0.00001316,0.,0.,0.,0.00000187,0.0000171
 9,0.00004806,-0.00004180,0.00001502,-0.00001476,-0.00000957,-0.0001133
 8,-0.00008995,0.00004604,0.00008258,-0.00002768,-0.00004026,-0.0000420
 8,-0.00000328,-0.00024245,0.00007282,-0.00009241,0.00005183,0.00001674
 ,0.00012906,-0.00000208,-0.00000939,-0.00002439,0.00010244,0.00006800,
 -0.00023536,-0.00020462,0.00016152,-0.00000818,0.00004515,-0.00008851,
 0.00004591,-0.00002026,0.00003147,0.00008686,-0.00000471,0.00000531,-0
 .00000085,0.00009251,-0.00009178,-0.00010657,0.00002640,0.00000317,-0.
 00003327,0.00001747,-0.00017812,0.00007172,0.00000161,-0.00000508,0.00
 000576,0.00040420,0.00025422,0.00098048,-0.02735522,0.00457642,-0.0089
 6288,-0.00079243,-0.00026122,0.00106274,-0.00004021,0.00387066,-0.0068
 5441,-0.10096236,0.02768792,-0.10047936,0.00012346,0.00004212,0.000015
 72,0.00019464,0.00031921,0.00002703,-0.00220812,0.00040998,-0.00197563
 ,0.01789819,-0.00350987,0.01053121,0.11202152,-0.03252675,0.10545954,0
 .,0.,0.,0.,0.,0.,-0.00003395,-0.00006961,0.00000214,0.00001179,0.00005
 637,0.00001634,0.,0.,0.,-0.00006891,-0.00008067,0.00002702,0.00000952,
 -0.00000165,-0.00000406,0.,0.,0.,0.00000882,-0.00001128,-0.00000510,-0
 .00003195,0.00000886,-0.00002102,0.00035212,-0.00004746,0.00026829,-0.
 00015939,-0.00021375,-0.00003934,0.00004311,0.00001285,0.00004598,0.00
 000276,-0.00005681,-0.00004560,-0.00000315,0.00002050,0.00006510,0.000
 00886,-0.00002908,-0.00004725,0.00001463,-0.00007043,-0.00007665,0.000
 17505,-0.00010853,-0.00012760,-0.00051468,0.00000613,0.00083457,0.0000
 7564,-0.00010241,-0.00022791,0.00001653,0.00001345,0.00001213,0.000135
 70,0.00000756,0.00017905,0.00004535,-0.00009194,-0.00012446,-0.0000556
 7,0.00013878,-0.00006144,-0.00000071,-0.00000213,0.00000651,-0.0000737
 0,0.00086103,0.00079033,-0.10688076,0.06853610,0.09407271,0.00525292,-
 0.00746618,-0.01494341,-0.01918466,0.02521478,0.01418836,0.00199048,0.
 00107419,0.00268444,-0.00049791,0.00109829,0.00012225,0.00178981,-0.00
 253410,0.00104787,-0.00005844,0.00040962,-0.00031249,0.00105111,-0.000
 05526,0.00007486,0.00008530,-0.00028399,0.00086615,0.11667544,0.,0.,0.
 ,0.,0.,0.,-0.00000306,-0.00004294,-0.00000630,-0.00000173,0.00000161,0
 .00000978,0.,0.,0.,-0.00007406,-0.00012087,0.00007209,0.00000333,0.000
 01745,-0.00001572,0.,0.,0.,-0.00002900,0.00000557,-0.00000306,0.000039
 40,-0.00000977,0.00001993,0.00001549,-0.00000431,0.00012970,-0.0000395
 8,-0.00004569,-0.00005297,0.00001533,0.00001072,0.00003467,0.00007540,
 -0.00004690,0.00006190,0.00001308,-0.00003260,-0.00006356,-0.00000725,
 0.00001835,0.00004566,-0.00012407,0.00002716,0.00012210,0.00021499,-0.
 00068292,0.00038233,0.00029583,0.00021380,-0.00120758,0.00002402,0.000
 06643,-0.00005474,0.00002457,0.00000503,0.00001598,-0.00010517,0.00003
 577,-0.00009387,-0.00004792,0.00000023,0.00006328,-0.00001555,0.000228
 00,-0.00010772,-0.00001446,0.00001717,-0.00003918,0.00047105,-0.000038
 70,-0.00083133,0.07440435,-0.13759253,-0.10563905,0.01498587,-0.014520
 94,-0.01799651,0.00361420,-0.00654522,0.00136460,-0.00810937,0.0105625
 5,0.01051597,-0.00091479,0.00104246,-0.00048768,0.00205082,-0.00205094
 ,0.00182185,-0.00002754,0.00056819,-0.00086262,-0.00061277,-0.00095244
 ,0.00342951,0.00045752,0.00031574,-0.00081395,-0.08643223,0.14937970,0
 .,0.,0.,0.,0.,0.,-0.00000751,0.00002263,0.00001310,0.00000885,0.000025
 10,-0.00000785,0.,0.,0.,0.00024752,0.00006997,-0.00008927,-0.00004702,
 -0.00001858,0.00001885,0.,0.,0.,0.00000624,-0.00000765,-0.00001129,-0.
 00002780,0.00000743,-0.00001613,0.00020339,0.00003759,-0.00002030,-0.0
 0000761,0.00003485,0.00022464,-0.00001686,-0.00002695,-0.00010587,-0.0
 0000611,0.00000990,-0.00010015,-0.00001692,0.00003146,0.00006522,0.000
 01167,-0.00001322,-0.00004390,0.00010190,-0.00010698,-0.00004691,-0.00
 042418,0.00061340,-0.00016256,0.00065264,-0.00020362,-0.00132351,-0.00
 002647,-0.00008771,-0.00004704,-0.00002720,0.00000059,-0.00003101,0.00
 010206,-0.00001106,0.00011831,0.00004854,-0.00003930,-0.00009165,-0.00
 001647,-0.00015533,0.00010563,0.00001005,-0.00002392,0.00002057,-0.000
 38977,0.00012381,0.00122059,0.09940902,-0.11499989,-0.19722435,-0.0017
 0872,0.00219853,-0.00139157,-0.01125961,0.01437427,0.01222579,0.012049
 38,-0.01555152,-0.01394845,0.00045267,0.00041768,0.00093823,-0.0001845
 7,0.00014277,0.00014788,0.00003144,0.00036370,0.00088737,0.00058064,0.
 00296119,-0.00370193,-0.00055966,-0.00009399,0.00059033,-0.09928942,0.
 11007189,0.20186459\\0.,0.,0.,0.,0.,0.,-0.00000013,-0.00000035,0.,0.00
 000008,0.00000018,-0.00000003,0.,0.,0.,0.00000058,-0.00000019,-0.00000
 017,-0.00000031,-0.00000004,0.00000014,0.,0.,0.,0.00000069,-0.00000004
 ,0.00000043,-0.00000020,0.00000005,-0.00000008,0.00000010,0.00000051,-
 0.00000007,0.00000008,-0.00000021,-0.00000029,-0.00000009,0.00000002,0
 .00000026,-0.00000052,0.00000014,-0.00000056,0.00000009,-0.00000011,0.
 00000024,0.00000004,-0.00000003,-0.00000006,0.00000033,-0.00000044,0.0
 0000029,-0.00000006,-0.00000005,-0.00000004,-0.00000008,0.00000011,-0.
 00000002,-0.00000003,-0.00000025,0.00000029,0.,0.00000002,-0.00000007,
 -0.00000053,0.00000040,0.00000058,-0.00000013,-0.00000002,-0.00000023,
 -0.00000063,0.00000032,-0.00000017,0.00000002,0.,0.,0.00000016,0.,-0.0
 0000002,-0.00000022,0.00000069,-0.00000028,0.00000008,-0.00000029,0.00
 000021,0.00000002,-0.00000006,-0.00000007,-0.00000022,-0.00000016,0.00
 000025,0.,-0.00000003,-0.00000011,-0.00000004,-0.00000004,0.00000003,0
 .00000016,0.00000016,0.00000002,0.00000003,-0.00000002,-0.00000002,0.0
 0000003,-0.00000007,0.00000002,0.00000015,-0.00000017,-0.00000011\\\@


 WE MIGHT AS WELL ATTEMPT TO INTRODUCE A NEW PLANET 
 INTO THE SOLAR SYSTEM, OR TO ANNIHILATE ONE ALREADYIN EXISTENCE, 
 AS TO CREATE OR DESTROY A PARTICLE OF HYDROGEN.
 ALL THE CHANGES WE CAN PRODUCE CONSIST IN SEPARATING PARTICLES
 THAT ARE IN A STATE OF ... COMBINATION, AND JOINING 
 THOSE THAT WERE PREVIOUSLY AT A DISTANCE.

                                    -- JOHN DALTON, 1810
 Job cpu time:       0 days 22 hours  8 minutes 21.4 seconds.
 Elapsed time:       0 days  0 hours 20 minutes 47.2 seconds.
 File lengths (MBytes):  RWF=   1775 Int=      0 D2E=      0 Chk=     23 Scr=      1
 Normal termination of Gaussian 16 at Sat Oct  5 18:06:20 2019.
