 Entering Gaussian System, Link 0=g16
 Input=Co_PO_TEABr_CO_TS_4_re.com
 Output=Co_PO_TEABr_CO_TS_4_re.log
 Initial command:
 /apps/commercial/G16/g16.linda/l1.exe "/scratch/x1711a05/Gau-43630.inp" -scrdir="/scratch/x1711a05/"
 Default linda workers: node8068
 Entering Link 1 = /apps/commercial/G16/g16.linda/l1.exe PID=     43631.
  
 Copyright (c) 1988,1990,1992,1993,1995,1998,2003,2009,2016,
            Gaussian, Inc.  All Rights Reserved.
  
 This is part of the Gaussian(R) 16 program.  It is based on
 the Gaussian(R) 09 system (copyright 2009, Gaussian, Inc.),
 the Gaussian(R) 03 system (copyright 2003, Gaussian, Inc.),
 the Gaussian(R) 98 system (copyright 1998, Gaussian, Inc.),
 the Gaussian(R) 94 system (copyright 1995, Gaussian, Inc.),
 the Gaussian 92(TM) system (copyright 1992, Gaussian, Inc.),
 the Gaussian 90(TM) system (copyright 1990, Gaussian, Inc.),
 the Gaussian 88(TM) system (copyright 1988, Gaussian, Inc.),
 the Gaussian 86(TM) system (copyright 1986, Carnegie Mellon
 University), and the Gaussian 82(TM) system (copyright 1983,
 Carnegie Mellon University). Gaussian is a federally registered
 trademark of Gaussian, Inc.
  
 This software contains proprietary and confidential information,
 including trade secrets, belonging to Gaussian, Inc.
  
 This software is provided under written license and may be
 used, copied, transmitted, or stored only in accord with that
 written license.
  
 The following legend is applicable only to US Government
 contracts under FAR:
  
                    RESTRICTED RIGHTS LEGEND
  
 Use, reproduction and disclosure by the US Government is
 subject to restrictions as set forth in subparagraphs (a)
 and (c) of the Commercial Computer Software - Restricted
 Rights clause in FAR 52.227-19.
  
 Gaussian, Inc.
 340 Quinnipiac St., Bldg. 40, Wallingford CT 06492
  
  
 ---------------------------------------------------------------
 Warning -- This program may not be used in any manner that
 competes with the business of Gaussian, Inc. or will provide
 assistance to any competitor of Gaussian, Inc.  The licensee
 of this program is prohibited from giving any competitor of
 Gaussian, Inc. access to this program.  By using this program,
 the user acknowledges that Gaussian, Inc. is engaged in the
 business of creating and licensing software in the field of
 computational chemistry and represents and warrants to the
 licensee that it is not a competitor of Gaussian, Inc. and that
 it will not use this program in any manner prohibited above.
 ---------------------------------------------------------------
  

 Cite this work as:
 Gaussian 16, Revision A.03,
 M. J. Frisch, G. W. Trucks, H. B. Schlegel, G. E. Scuseria, 
 M. A. Robb, J. R. Cheeseman, G. Scalmani, V. Barone, 
 G. A. Petersson, H. Nakatsuji, X. Li, M. Caricato, A. V. Marenich, 
 J. Bloino, B. G. Janesko, R. Gomperts, B. Mennucci, H. P. Hratchian, 
 J. V. Ortiz, A. F. Izmaylov, J. L. Sonnenberg, D. Williams-Young, 
 F. Ding, F. Lipparini, F. Egidi, J. Goings, B. Peng, A. Petrone, 
 T. Henderson, D. Ranasinghe, V. G. Zakrzewski, J. Gao, N. Rega, 
 G. Zheng, W. Liang, M. Hada, M. Ehara, K. Toyota, R. Fukuda, 
 J. Hasegawa, M. Ishida, T. Nakajima, Y. Honda, O. Kitao, H. Nakai, 
 T. Vreven, K. Throssell, J. A. Montgomery, Jr., J. E. Peralta, 
 F. Ogliaro, M. J. Bearpark, J. J. Heyd, E. N. Brothers, K. N. Kudin, 
 V. N. Staroverov, T. A. Keith, R. Kobayashi, J. Normand, 
 K. Raghavachari, A. P. Rendell, J. C. Burant, S. S. Iyengar, 
 J. Tomasi, M. Cossi, J. M. Millam, M. Klene, C. Adamo, R. Cammi, 
 J. W. Ochterski, R. L. Martin, K. Morokuma, O. Farkas, 
 J. B. Foresman, and D. J. Fox, Gaussian, Inc., Wallingford CT, 2016.
 
 ******************************************
 Gaussian 16:  ES64L-G16RevA.03 25-Dec-2016
                28-Jan-2020 
 ******************************************
 %nprocshared=64
 Will use up to   64 processors via shared memory.
 %mem=64GB
 %chk=Co_PO_TEABr_CO_TS_4_re.chk
 SetLPE:    new flags="-opt 'Tsnet.Node.lindarsharg: ssh'  -nodelist 'node8068' -env GAUSS_MDEF=8589934592 -env GAUSS_EXEDIR="/apps/commercial/G16/g16.linda""
 Will use up to    1 processors via Linda.
 ----------------------------------------------------------------------
 # opt=(calcall,tight,qst3,cartesian) freq cam-b3lyp/gen nosymm scf=(qc
 ,maxcycle=1024,vshift=100) pseudo=read
 ----------------------------------------------------------------------
 1/5=1,7=10,10=4,18=20,26=3,27=203,38=1/1,3;
 2/9=110,12=2,15=1,17=6,18=5,40=1/2;
 3/5=7,11=2,16=1,17=8,25=1,30=1,71=2,74=-40,140=1/1,2,3;
 4//1;
 5/5=2,7=1024,8=3,10=100,38=5/8;
 8/6=4,10=90,11=11/1;
 11/6=1,8=1,9=11,15=111,16=1,31=1/1,2,10;
 10/6=1,31=1/2;
 6/7=2,8=2,9=2,10=2,18=1,28=1/1;
 7/10=1,25=1,30=1/1,2,3,16;
 1/5=1,7=10,10=4,18=20,26=3,27=203/3(3);
 2/9=110,15=1/2;
 7/8=1,9=1,25=1,30=1,44=-1/16;
 99//99;
 2/9=110,15=1/2;
 3/5=7,6=1,11=2,16=1,17=8,25=1,30=1,71=2,74=-40,82=7,140=1/1,2,3;
 4/5=5,16=3,69=1/1;
 5/5=2,7=1024,8=3,10=100,38=5/8;
 8/6=4,10=90,11=11/1;
 11/6=1,8=1,9=11,15=111,16=1,31=1/1,2,10;
 10/6=1,31=1/2;
 7/10=1,25=1,30=1/1,2,3,16;
 1/5=1,7=10,10=4,18=20,26=3,27=203/3(-8);
 2/9=110,15=1/2;
 6/7=2,8=2,9=2,10=2,18=1,19=2,28=1/1;
 7/8=1,9=1,25=1,30=1,44=-1/16;
 99//99;
 -------------------------------
 Co_PO_TEABr_CO_opt_freq4_rerere
 -------------------------------
 Symbolic Z-matrix:
 Charge =  0 Multiplicity = 4
 Li                   -1   -0.65876  -5.04605  -3.46452 
 N                    -1   -0.32836  -3.61409  -2.2819 
 C                    0    -1.46309  -3.70009  -1.52679 
 Cl                   0    -2.54311  -5.04022  -1.80832 
 N                    -1    2.25851   2.61269  -2.48314 
 C                    0     3.26322   1.75194  -2.18487 
 Cl                   0     4.90548   2.05078  -2.64786 
 N                    -1   -3.37906   2.02857   1.06405 
 C                    0    -3.54997   2.10159  -0.27448 
 Cl                   0    -4.92576   2.86147  -0.99938 
 N                    0    -0.43615  -1.87239  -0.88111 
 C                    0    -1.5419   -2.64402  -0.66943 
 Cl                   0    -2.75837  -2.27785   0.47317 
 N                    0    -1.6295    1.03709   0.02537 
 C                    0    -2.49828   1.49672  -0.91926 
 Cl                   0    -2.25696   1.25172  -2.61285 
 N                    0     1.43028   0.85858  -1.31248 
 C                    0     2.77232   0.68294  -1.4745 
 Cl                   0     3.60879  -0.70591  -0.88895 
 C                    0     0.25073  -2.48802  -1.84504 
 H                    0     1.18548  -2.10579  -2.22871 
 C                    0    -2.22742   1.38428   1.19314 
 H                    0    -1.7964    1.11542   2.14759 
 C                    0     1.18799   2.02634  -1.94749 
 H                    0     0.18872   2.43196  -2.01756 
 Co                   0     0.07288  -0.05599  -0.0477 
 C                    0     1.75541   0.53857   2.2603 
 C                    0     0.97797   1.41694   3.24408 
 O                    0     0.81681  -0.29028   1.66288 
 C                    0     2.84544  -0.27768   2.9475 
 H                    0     0.1685    1.94352   2.74541 
 H                    0     0.58751   0.83218   4.07475 
 H                    0     3.32764  -0.92129   2.20945 
 H                    0     2.40462  -0.90794   3.72543 
 H                    0     3.60331   0.36168   3.40858 
 H                    0     2.24141   1.199     1.51826 
 N                    0     2.29514   5.37888   0.37457 
 C                    0     1.98757   6.03742   1.71377 
 C                    0     3.0605    6.92314   2.33021 
 H                    0     1.73453   5.22363   2.39427 
 H                    0     1.08774   6.63421   1.5528 
 H                    0     2.7022    7.20647   3.32306 
 H                    0     4.01701   6.41936   2.4628 
 H                    0     3.22119   7.84581   1.77011 
 C                    0     3.10438   6.31159  -0.5017 
 C                    0     3.56876   5.73699  -1.83134 
 H                    0     3.9689    6.62053   0.08164 
 H                    0     2.47513   7.1931   -0.64905 
 H                    0     4.00563   6.55888  -2.40427 
 H                    0     4.3413    4.97716  -1.70504 
 H                    0     2.77613   5.28843  -2.42959 
 C                    0     0.96406   5.11357  -0.32999 
 C                    0    -0.05004   4.29446   0.44886 
 H                    0     1.21374   4.60425  -1.25925 
 H                    0     0.56265   6.10249  -0.56374 
 H                    0    -0.956     4.22671  -0.15893 
 H                    0     0.27575   3.2684    0.61545 
 H                    0    -0.33508   4.74254   1.40172 
 C                    0     2.99794   4.04235   0.55341 
 C                    0     4.38448   4.07994   1.16699 
 H                    0     3.01633   3.58667  -0.43524 
 H                    0     2.34594   3.44653   1.18806 
 H                    0     4.78784   3.06771   1.0882 
 H                    0     5.0765    4.74272   0.64299 
 H                    0     4.3639    4.33127   2.22778 
 Br                   0     2.07686   2.85386   4.07201 
 C                    0    -0.05693  -2.35496   3.07873 
 O                    0    -0.22113  -1.69603   4.0277 
 O                    0     0.07823  -3.0988    2.19309 
 
 Add virtual bond connecting atoms H61        and N5         Dist= 4.52D+00.
 Add virtual bond connecting atoms H62        and H36        Dist= 4.30D+00.
 Add virtual bond connecting atoms C67        and O29        Dist= 5.01D+00.
 Add virtual bond connecting atoms O68        and H32        Dist= 5.02D+00.
 Add virtual bond connecting atoms O68        and H34        Dist= 5.21D+00.
 ------------------------
 Co_PO_TEABr_CO_opt_freq4
 ------------------------
 Symbolic Z-matrix:
 Charge =  0 Multiplicity = 4
 Li                   -1   -0.65876  -5.04605  -3.46452 
 N                    -1   -0.32836  -3.61409  -2.2819 
 C                    0    -1.24078  -3.8609   -1.29754 
 Cl                   0    -2.16798  -5.33103  -1.39118 
 N                    -1    2.25851   2.61269  -2.48314 
 C                    0     3.26313   1.82284  -2.02711 
 Cl                   0     4.92838   2.16711  -2.34426 
 N                    -1   -3.37906   2.02857   1.06405 
 C                    0    -3.55524   2.15867  -0.2716 
 Cl                   0    -4.88821   3.02354  -0.95609 
 N                    0    -0.33385  -1.91792  -0.82531 
 C                    0    -1.25611  -2.83362  -0.40097 
 Cl                   0    -2.2076   -2.63897   1.00245 
 N                    0    -1.69846   0.97887  -0.02156 
 C                    0    -2.54511   1.51896  -0.94497 
 Cl                   0    -2.3253    1.31711  -2.64693 
 N                    0     1.38871   0.89275  -1.29727 
 C                    0     2.74705   0.77399  -1.30684 
 Cl                   0     3.56341  -0.53476  -0.54235 
 C                    0     0.1879   -2.42576  -1.94351 
 H                    0     0.95126  -1.91569  -2.51327 
 C                    0    -2.26754   1.31158   1.16322 
 H                    0    -1.82809   1.00096   2.10137 
 C                    0     1.16241   2.01062  -2.02559 
 H                    0     0.16037   2.3653   -2.22286 
 Co                   0     0.03647  -0.03266  -0.08784 
 C                    0     3.03639   1.84081   2.96603 
 C                    0     2.42781   2.49629   4.2115 
 O                    0     2.01631   1.31429   2.11077 
 C                    0     4.11361   0.81931   3.29324 
 H                    0     1.392     2.7808    4.05197 
 H                    0     2.50253   1.88427   5.10331 
 H                    0     4.53295   0.41462   2.36978 
 H                    0     3.69558   0.00538   3.88567 
 H                    0     4.9159    1.30099   3.85962 
 H                    0     3.48368   2.62619   2.35455 
 N                    0     1.32268   5.50344   0.46369 
 C                    0     1.51038   6.28667   1.75411 
 C                    0     2.50985   7.43481   1.7441 
 H                    0     1.78431   5.55842   2.51846 
 H                    0     0.52484   6.68305   2.00569 
 H                    0     2.56307   7.81116   2.76871 
 H                    0     3.51574   7.1349    1.45672 
 H                    0     2.19403   8.26486   1.11046 
 C                    0     1.4003    6.4443   -0.72156 
 C                    0     1.02815   5.85655  -2.07415 
 H                    0     2.42128   6.82157  -0.74616 
 H                    0     0.74228   7.2817   -0.47592 
 H                    0     1.2101    6.63561  -2.81912 
 H                    0     1.62605   4.98543  -2.35601 
 H                    0    -0.02865   5.59284  -2.13905 
 C                    0    -0.07001   4.8759    0.4875 
 C                    0    -0.4411    4.11551   1.74735 
 H                    0    -0.1152    4.20671  -0.37074 
 H                    0    -0.76583   5.70146   0.31831 
 H                    0    -1.45832   3.74039   1.60788 
 H                    0     0.19286   3.24263   1.91226 
 H                    0    -0.44124   4.7398    2.64232 
 C                    0     2.3316    4.37336   0.3266 
 C                    0     3.79603   4.74058   0.47531 
 H                    0     2.15639   3.93196  -0.65221 
 H                    0     2.05206   3.62721   1.06805 
 H                    0     4.36812   3.84802   0.21069 
 H                    0     4.1163    5.52616  -0.21292 
 H                    0     4.06407   5.01464   1.49737 
 Br                   0     3.37203   4.18816   4.63132 
 C                    0     1.20966   0.31502   2.65255 
 O                    0     1.26371   0.0856    3.84964 
 O                    0     0.47037  -0.24192   1.77806 
 
 Add virtual bond connecting atoms H61        and N5         Dist= 4.27D+00.
 Add virtual bond connecting atoms H62        and H36        Dist= 4.10D+00.
 ----------------------
 Co_PO_TEABr_CO_TS_4_re
 ----------------------
 Symbolic Z-matrix:
 Charge =  0 Multiplicity = 4
 Li                   -1   -0.65868  -5.04605  -3.46455 
 N                    -1   -0.3285   -3.61413  -2.28185 
 C                    0    -1.62643  -3.40673  -1.9175 
 Cl                   0    -2.84086  -4.52472  -2.49019 
 N                    -1    2.25855   2.61275  -2.48317 
 C                    0     3.20519   1.6972   -2.16231 
 Cl                   0     4.87004   1.88778  -2.60072 
 N                    -1   -3.37905   2.02854   1.06405 
 C                    0    -3.48574   2.08556  -0.2816 
 Cl                   0    -4.8951    2.69816  -1.07904 
 N                    0    -0.48199  -1.75521  -1.03881 
 C                    0    -1.74306  -2.2801   -1.16151 
 Cl                   0    -3.18493  -1.62309  -0.53521 
 N                    0    -1.48474   1.21072   0.12313 
 C                    0    -2.34845   1.58991  -0.8682 
 Cl                   0    -2.066     1.3238   -2.55277 
 N                    0     1.3023    0.92797  -1.29686 
 C                    0     2.63739   0.67861  -1.43934 
 Cl                   0     3.38741  -0.71813  -0.74702 
 C                    0     0.31304  -2.57948  -1.72461 
 H                    0     1.37831  -2.42398  -1.81378 
 C                    0    -2.17867   1.50368   1.25223 
 H                    0    -1.79003   1.28501   2.23696 
 C                    0     1.14506   2.10408  -1.94645 
 H                    0     0.17822   2.57513  -2.03234 
 Co                   0     0.12365  -0.10297   0.11236 
 C                    0     1.85907   0.29514   2.82244 
 C                    0     1.15994   1.30983   3.72718 
 O                    0     0.87335  -0.30704   1.98335 
 C                    0     2.66717  -0.75002   3.5713 
 H                    0     0.4291    1.88921   3.16571 
 H                    0     0.68368   0.83914   4.58166 
 H                    0     3.15481  -1.41655   2.85654 
 H                    0     2.00951  -1.33568   4.2138 
 H                    0     3.43721  -0.26829   4.17924 
 H                    0     2.51427   0.83517   2.13129 
 N                    0     2.44419   5.17236   0.60566 
 C                    0     2.22629   5.74691   1.9993 
 C                    0     3.40714   6.42487   2.67825 
 H                    0     1.87148   4.91918   2.61331 
 H                    0     1.41223   6.46757   1.90071 
 H                    0     3.08855   6.66631   3.69536 
 H                    0     4.28688   5.78772   2.75745 
 H                    0     3.6909    7.36252   2.19781 
 C                    0     3.35616   6.07827  -0.19587 
 C                    0     3.71271   5.59877  -1.59381 
 H                    0     4.26496   6.20418   0.38829 
 H                    0     2.84924   7.04613  -0.2279 
 H                    0     4.28768   6.3973   -2.06976 
 H                    0     4.33758   4.70497  -1.58237 
 H                    0     2.85254   5.38092  -2.22541 
 C                    0     1.08779   5.12981  -0.10112 
 C                    0    -0.02041   4.38587   0.62218 
 H                    0     1.27017   4.66763  -1.0698 
 H                    0     0.81423   6.17642  -0.25476 
 H                    0    -0.92692   4.48356   0.01943 
 H                    0     0.15984   3.31395   0.69969 
 H                    0    -0.24729   4.79277   1.60882 
 C                    0     2.98171   3.75087   0.65667 
 C                    0     4.38139   3.56681   1.21299 
 H                    0     2.91969   3.37916  -0.36439 
 H                    0     2.27024   3.19014   1.26057 
 H                    0     4.65587   2.52524   1.02823 
 H                    0     5.13076   4.18294   0.71226 
 H                    0     4.43021   3.72518   2.29016 
 Br                   0     2.43794   2.62484   4.44637 
 C                    0    -0.37224  -0.99951   2.56627 
 O                    0    -0.36927  -1.1637    3.76332 
 O                    0    -1.11909  -1.18995   1.5982 
 

 GradGradGradGradGradGradGradGradGradGradGradGradGradGradGradGradGradGrad
 Berny optimization.
 Initialization pass.
                           ----------------------------
                           !    Initial Parameters    !
                           ! (Angstroms and Degrees)  !
 --------------------------                            --------------------------
 ! Name  Definition         TS        Reactant Product Derivative Info.         !
 --------------------------------------------------------------------------------
 ! X1    R(1,-1)           -0.6587   -0.6588   -0.6588 frozen, calculate D2E/DX2!
 ! Y1    R(1,-2)           -5.046    -5.0461   -5.0461 frozen, calculate D2E/DX2!
 ! Z1    R(1,-3)           -3.4646   -3.4645   -3.4645 frozen, calculate D2E/DX2!
 ! X2    R(2,-1)           -0.3285   -0.3284   -0.3284 frozen, calculate D2E/DX2!
 ! Y2    R(2,-2)           -3.6141   -3.6141   -3.6141 frozen, calculate D2E/DX2!
 ! Z2    R(2,-3)           -2.2819   -2.2819   -2.2819 frozen, calculate D2E/DX2!
 ! X5    R(5,-1)            2.2586    2.2585    2.2585 frozen, calculate D2E/DX2!
 ! Y5    R(5,-2)            2.6127    2.6127    2.6127 frozen, calculate D2E/DX2!
 ! Z5    R(5,-3)           -2.4832   -2.4831   -2.4831 frozen, calculate D2E/DX2!
 ! X8    R(8,-1)           -3.379    -3.3791   -3.3791 frozen, calculate D2E/DX2!
 ! Y8    R(8,-2)            2.0285    2.0286    2.0286 frozen, calculate D2E/DX2!
 ! Z8    R(8,-3)            1.064     1.064     1.064  frozen, calculate D2E/DX2!
 ! R1    R(2,3)             1.364     1.3657    1.3647 calculate D2E/DX2 analyti!
 ! R2    R(2,20)            1.3389    1.3395    1.3391 calculate D2E/DX2 analyti!
 ! R3    R(3,4)             1.7472    1.744     1.7406 calculate D2E/DX2 analyti!
 ! R4    R(3,12)            1.3618    1.3626    1.3636 calculate D2E/DX2 analyti!
 ! R5    R(5,6)             1.3555    1.3562    1.3569 calculate D2E/DX2 analyti!
 ! R6    R(5,24)            1.3367    1.3329    1.3316 calculate D2E/DX2 analyti!
 ! R7    R(5,61)            2.3481    2.391     2.259  calculate D2E/DX2 analyti!
 ! R8    R(6,7)             1.7321    1.7322    1.7298 calculate D2E/DX2 analyti!
 ! R9    R(6,18)            1.3721    1.3742    1.373  calculate D2E/DX2 analyti!
 ! R10   R(8,9)             1.3511    1.3514    1.3535 calculate D2E/DX2 analyti!
 ! R11   R(8,22)            1.3236    1.3259    1.3264 calculate D2E/DX2 analyti!
 ! R12   R(9,10)            1.7313    1.7308    1.7301 calculate D2E/DX2 analyti!
 ! R13   R(9,15)            1.3723    1.3739    1.3722 calculate D2E/DX2 analyti!
 ! R14   R(11,12)           1.3714    1.3649    1.3672 calculate D2E/DX2 analyti!
 ! R15   R(11,20)           1.3348    1.3342    1.3344 calculate D2E/DX2 analyti!
 ! R16   R(11,26)           2.1028    2.0623    2.058  calculate D2E/DX2 analyti!
 ! R17   R(12,13)           1.7038    1.7086    1.7067 calculate D2E/DX2 analyti!
 ! R18   R(14,15)           1.3684    1.3632    1.3643 calculate D2E/DX2 analyti!
 ! R19   R(14,22)           1.3573    1.3571    1.3558 calculate D2E/DX2 analyti!
 ! R20   R(14,26)           2.0767    2.0244    2.0094 calculate D2E/DX2 analyti!
 ! R21   R(15,16)           1.7287    1.7282    1.7279 calculate D2E/DX2 analyti!
 ! R22   R(17,18)           1.3656    1.3632    1.3636 calculate D2E/DX2 analyti!
 ! R23   R(17,24)           1.3527    1.3512    1.3532 calculate D2E/DX2 analyti!
 ! R24   R(17,26)           2.1066    2.0685    2.0366 calculate D2E/DX2 analyti!
 ! R25   R(18,19)           1.7299    1.7238    1.7215 calculate D2E/DX2 analyti!
 ! R26   R(20,21)           1.0803    1.0803    1.0805 calculate D2E/DX2 analyti!
 ! R27   R(22,23)           1.081     1.0812    1.0815 calculate D2E/DX2 analyti!
 ! R28   R(24,25)           1.0789    1.0807    1.0811 calculate D2E/DX2 analyti!
 ! R29   R(26,29)           2.0259    1.88      3.2508 calculate D2E/DX2 analyti!
 ! R30   R(26,69)           2.2212    3.7789    1.9271 calculate D2E/DX2 analyti!
 ! R31   R(27,28)           1.5287    1.5309    1.5334 calculate D2E/DX2 analyti!
 ! R32   R(27,29)           1.4277    1.3874    1.4315 calculate D2E/DX2 analyti!
 ! R33   R(27,30)           1.5186    1.5253    1.5202 calculate D2E/DX2 analyti!
 ! R34   R(27,36)           1.0948    1.1059    1.0912 calculate D2E/DX2 analyti!
 ! R35   R(28,31)           1.0886    1.0868    1.0859 calculate D2E/DX2 analyti!
 ! R36   R(28,32)           1.0856    1.0883    1.0842 calculate D2E/DX2 analyti!
 ! R37   R(28,66)           1.9697    1.9894    1.9825 calculate D2E/DX2 analyti!
 ! R38   R(29,67)           1.5397    2.6516    1.3938 calculate D2E/DX2 analyti!
 ! R39   R(30,33)           1.0922    1.0915    1.092  calculate D2E/DX2 analyti!
 ! R40   R(30,34)           1.0901    1.0939    1.09   calculate D2E/DX2 analyti!
 ! R41   R(30,35)           1.093     1.0935    1.0938 calculate D2E/DX2 analyti!
 ! R42   R(32,68)           2.4062    2.6548    2.5182 calculate D2E/DX2 analyti!
 ! R43   R(34,68)           2.4272    2.7581    2.4335 calculate D2E/DX2 analyti!
 ! R44   R(36,62)           2.5226    2.2741    2.1695 calculate D2E/DX2 analyti!
 ! R45   R(37,38)           1.5231    1.5237    1.5211 calculate D2E/DX2 analyti!
 ! R46   R(37,45)           1.5149    1.5142    1.5153 calculate D2E/DX2 analyti!
 ! R47   R(37,52)           1.5301    1.5292    1.5277 calculate D2E/DX2 analyti!
 ! R48   R(37,59)           1.5206    1.5206    1.5211 calculate D2E/DX2 analyti!
 ! R49   R(38,39)           1.5215    1.5217    1.5223 calculate D2E/DX2 analyti!
 ! R50   R(38,40)           1.09      1.0906    1.0907 calculate D2E/DX2 analyti!
 ! R51   R(38,41)           1.0917    1.0917    1.0916 calculate D2E/DX2 analyti!
 ! R52   R(39,42)           1.0928    1.0929    1.0928 calculate D2E/DX2 analyti!
 ! R53   R(39,43)           1.0891    1.0892    1.0883 calculate D2E/DX2 analyti!
 ! R54   R(39,44)           1.0911    1.0913    1.091  calculate D2E/DX2 analyti!
 ! R55   R(45,46)           1.5203    1.5211    1.521  calculate D2E/DX2 analyti!
 ! R56   R(45,47)           1.0877    1.0877    1.0887 calculate D2E/DX2 analyti!
 ! R57   R(45,48)           1.093     1.093     1.093  calculate D2E/DX2 analyti!
 ! R58   R(46,49)           1.0931    1.093     1.0932 calculate D2E/DX2 analyti!
 ! R59   R(46,50)           1.0906    1.0909    1.0935 calculate D2E/DX2 analyti!
 ! R60   R(46,51)           1.0892    1.0897    1.0911 calculate D2E/DX2 analyti!
 ! R61   R(52,53)           1.5181    1.5185    1.5176 calculate D2E/DX2 analyti!
 ! R62   R(52,54)           1.0887    1.0887    1.0892 calculate D2E/DX2 analyti!
 ! R63   R(52,55)           1.0926    1.0926    1.0929 calculate D2E/DX2 analyti!
 ! R64   R(53,56)           1.093     1.0931    1.0931 calculate D2E/DX2 analyti!
 ! R65   R(53,57)           1.0897    1.0893    1.0913 calculate D2E/DX2 analyti!
 ! R66   R(53,58)           1.0911    1.0909    1.0912 calculate D2E/DX2 analyti!
 ! R67   R(59,60)           1.5174    1.5167    1.5171 calculate D2E/DX2 analyti!
 ! R68   R(59,61)           1.0884    1.0888    1.0879 calculate D2E/DX2 analyti!
 ! R69   R(59,62)           1.0887    1.0876    1.0884 calculate D2E/DX2 analyti!
 ! R70   R(60,63)           1.0929    1.0925    1.0927 calculate D2E/DX2 analyti!
 ! R71   R(60,64)           1.0917    1.0921    1.0924 calculate D2E/DX2 analyti!
 ! R72   R(60,65)           1.0898    1.0904    1.0916 calculate D2E/DX2 analyti!
 ! R73   R(67,68)           1.2083    1.1669    1.2201 calculate D2E/DX2 analyti!
 ! R74   R(67,69)           1.2374    1.1644    1.2734 calculate D2E/DX2 analyti!
 ! A1    A(1,2,3)          96.6818   98.8186  101.4092 calculate D2E/DX2 analyti!
 ! A2    A(1,2,20)        158.6611  156.6888  154.1075 calculate D2E/DX2 analyti!
 ! A3    A(3,2,20)        103.137   103.4037  103.6495 calculate D2E/DX2 analyti!
 ! A4    A(2,3,4)         118.4614  118.2721  118.0404 calculate D2E/DX2 analyti!
 ! A5    A(2,3,12)        110.8302  110.3135  110.2137 calculate D2E/DX2 analyti!
 ! A6    A(4,3,12)        130.679   131.4005  131.7346 calculate D2E/DX2 analyti!
 ! A7    A(6,5,24)        103.2787  103.1448  103.3421 calculate D2E/DX2 analyti!
 ! A8    A(6,5,61)         79.0606   80.5239   95.7982 calculate D2E/DX2 analyti!
 ! A9    A(24,5,61)        89.796    95.1376   87.0391 calculate D2E/DX2 analyti!
 ! A10   A(5,6,7)         122.4816  122.2808  122.3637 calculate D2E/DX2 analyti!
 ! A11   A(5,6,18)        109.7036  110.046   110.0408 calculate D2E/DX2 analyti!
 ! A12   A(7,6,18)        127.7918  127.6645  127.5941 calculate D2E/DX2 analyti!
 ! A13   A(9,8,22)        103.295   103.4465  103.5805 calculate D2E/DX2 analyti!
 ! A14   A(8,9,10)        122.5451  122.6219  122.5987 calculate D2E/DX2 analyti!
 ! A15   A(8,9,15)        110.1849  110.1353  110.0974 calculate D2E/DX2 analyti!
 ! A16   A(10,9,15)       127.268   127.2427  127.3038 calculate D2E/DX2 analyti!
 ! A17   A(12,11,20)      105.3884  105.5618  105.6029 calculate D2E/DX2 analyti!
 ! A18   A(12,11,26)      127.9175  129.4371  128.5893 calculate D2E/DX2 analyti!
 ! A19   A(20,11,26)      126.5059  124.8427  125.3511 calculate D2E/DX2 analyti!
 ! A20   A(3,12,11)       106.7116  107.0815  107.0335 calculate D2E/DX2 analyti!
 ! A21   A(3,12,13)       126.5538  128.9071  129.2609 calculate D2E/DX2 analyti!
 ! A22   A(11,12,13)      126.705   124.0105  123.7053 calculate D2E/DX2 analyti!
 ! A23   A(15,14,22)      102.7171  103.2511  103.5231 calculate D2E/DX2 analyti!
 ! A24   A(15,14,26)      131.3282  133.865   135.4628 calculate D2E/DX2 analyti!
 ! A25   A(22,14,26)      122.467   122.6631  120.9819 calculate D2E/DX2 analyti!
 ! A26   A(9,15,14)       108.271   108.1242  108.0137 calculate D2E/DX2 analyti!
 ! A27   A(9,15,16)       127.4129  128.9919  129.1561 calculate D2E/DX2 analyti!
 ! A28   A(14,15,16)      124.0676  122.8399  122.7858 calculate D2E/DX2 analyti!
 ! A29   A(18,17,24)      102.8436  103.4177  103.5771 calculate D2E/DX2 analyti!
 ! A30   A(18,17,26)      121.8311  131.4351  128.7576 calculate D2E/DX2 analyti!
 ! A31   A(24,17,26)      132.9735  123.4922  125.728  calculate D2E/DX2 analyti!
 ! A32   A(6,18,17)       108.9044  108.234   108.1545 calculate D2E/DX2 analyti!
 ! A33   A(6,18,19)       129.1121  128.9779  129.4528 calculate D2E/DX2 analyti!
 ! A34   A(17,18,19)      121.9733  122.7639  122.3767 calculate D2E/DX2 analyti!
 ! A35   A(2,20,11)       113.9309  113.6394  113.5002 calculate D2E/DX2 analyti!
 ! A36   A(2,20,21)       123.3263  123.758   123.92   calculate D2E/DX2 analyti!
 ! A37   A(11,20,21)      122.7419  122.6026  122.5796 calculate D2E/DX2 analyti!
 ! A38   A(8,22,14)       115.531   115.0379  114.7745 calculate D2E/DX2 analyti!
 ! A39   A(8,22,23)       122.398   123.5748  124.0963 calculate D2E/DX2 analyti!
 ! A40   A(14,22,23)      122.0275  121.3547  121.1291 calculate D2E/DX2 analyti!
 ! A41   A(5,24,17)       115.2674  115.1524  114.8826 calculate D2E/DX2 analyti!
 ! A42   A(5,24,25)       123.2568  123.4657  123.4969 calculate D2E/DX2 analyti!
 ! A43   A(17,24,25)      121.4655  121.3762  121.6148 calculate D2E/DX2 analyti!
 ! A44   A(11,26,14)      106.07    106.4153  108.5189 calculate D2E/DX2 analyti!
 ! A45   A(11,26,17)      100.3377  107.7162  108.8404 calculate D2E/DX2 analyti!
 ! A46   A(11,26,29)      122.2088  110.8305  137.014  calculate D2E/DX2 analyti!
 ! A47   A(11,26,69)       79.6623   62.0156  106.7392 calculate D2E/DX2 analyti!
 ! A48   A(14,26,17)       97.309   109.5833  111.3541 calculate D2E/DX2 analyti!
 ! A49   A(14,26,29)      110.2143  111.5437  107.1546 calculate D2E/DX2 analyti!
 ! A50   A(14,26,69)       82.691   114.4917  102.5405 calculate D2E/DX2 analyti!
 ! A51   A(17,26,29)      117.3897  110.5958   78.9879 calculate D2E/DX2 analyti!
 ! A52   A(17,26,69)      180.0     135.8623  118.349  calculate D2E/DX2 analyti!
 ! A53   A(28,27,29)      108.1819  106.0168  111.0804 calculate D2E/DX2 analyti!
 ! A54   A(28,27,30)      114.1004  112.3598  113.183  calculate D2E/DX2 analyti!
 ! A55   A(28,27,36)      108.6577  108.1621  108.0689 calculate D2E/DX2 analyti!
 ! A56   A(29,27,30)      111.5263  110.9622  112.7307 calculate D2E/DX2 analyti!
 ! A57   A(29,27,36)      104.4904  111.4161  102.8272 calculate D2E/DX2 analyti!
 ! A58   A(30,27,36)      109.4104  107.9285  108.2872 calculate D2E/DX2 analyti!
 ! A59   A(27,28,31)      110.7964  111.1842  111.792  calculate D2E/DX2 analyti!
 ! A60   A(27,28,32)      112.2522  111.3697  113.5436 calculate D2E/DX2 analyti!
 ! A61   A(27,28,66)      111.2534  113.6613  110.3518 calculate D2E/DX2 analyti!
 ! A62   A(31,28,32)      110.0114  110.0796  109.5399 calculate D2E/DX2 analyti!
 ! A63   A(31,28,66)      105.5804  104.62    105.1781 calculate D2E/DX2 analyti!
 ! A64   A(32,28,66)      106.6617  105.5823  105.9465 calculate D2E/DX2 analyti!
 ! A65   A(26,29,27)      139.094   125.8066  172.0727 calculate D2E/DX2 analyti!
 ! A66   A(26,29,67)       95.4845  116.9034   67.2553 calculate D2E/DX2 analyti!
 ! A67   A(27,29,67)      121.7164  117.2695  116.3497 calculate D2E/DX2 analyti!
 ! A68   A(27,30,33)      109.5648  109.062   109.8239 calculate D2E/DX2 analyti!
 ! A69   A(27,30,34)      109.8385  109.9208  110.3024 calculate D2E/DX2 analyti!
 ! A70   A(27,30,35)      110.2336  111.8608  109.5901 calculate D2E/DX2 analyti!
 ! A71   A(33,30,34)      109.0989  108.6109  109.2793 calculate D2E/DX2 analyti!
 ! A72   A(33,30,35)      108.5674  108.886   108.6281 calculate D2E/DX2 analyti!
 ! A73   A(34,30,35)      109.5115  108.4384  109.1884 calculate D2E/DX2 analyti!
 ! A74   A(28,32,68)      106.5699  127.4049   87.6959 calculate D2E/DX2 analyti!
 ! A75   A(30,34,68)      116.3472  128.7689  110.5232 calculate D2E/DX2 analyti!
 ! A76   A(27,36,62)      128.3523  135.0609  113.1968 calculate D2E/DX2 analyti!
 ! A77   A(38,37,45)      110.1625  110.505   109.7267 calculate D2E/DX2 analyti!
 ! A78   A(38,37,52)      107.8379  107.7105  108.1051 calculate D2E/DX2 analyti!
 ! A79   A(38,37,59)      111.8709  111.7031  112.1567 calculate D2E/DX2 analyti!
 ! A80   A(45,37,52)      107.8127  107.7846  108.2969 calculate D2E/DX2 analyti!
 ! A81   A(45,37,59)      111.3449  111.2526  110.9059 calculate D2E/DX2 analyti!
 ! A82   A(52,37,59)      107.6298  107.6977  107.5103 calculate D2E/DX2 analyti!
 ! A83   A(37,38,39)      117.7332  117.7271  117.6317 calculate D2E/DX2 analyti!
 ! A84   A(37,38,40)      105.995   105.8279  106.3615 calculate D2E/DX2 analyti!
 ! A85   A(37,38,41)      105.8469  105.8461  105.7278 calculate D2E/DX2 analyti!
 ! A86   A(39,38,40)      109.8552  110.1909  110.0784 calculate D2E/DX2 analyti!
 ! A87   A(39,38,41)      108.9586  108.8268  108.6871 calculate D2E/DX2 analyti!
 ! A88   A(40,38,41)      108.026   107.9802  107.9197 calculate D2E/DX2 analyti!
 ! A89   A(38,39,42)      106.7081  106.7231  106.5917 calculate D2E/DX2 analyti!
 ! A90   A(38,39,43)      113.4951  113.534   113.6249 calculate D2E/DX2 analyti!
 ! A91   A(38,39,44)      112.8464  112.832   112.8053 calculate D2E/DX2 analyti!
 ! A92   A(42,39,43)      107.2802  107.2914  107.3058 calculate D2E/DX2 analyti!
 ! A93   A(42,39,44)      107.2038  107.1785  107.2554 calculate D2E/DX2 analyti!
 ! A94   A(43,39,44)      108.9468  108.9203  108.897  calculate D2E/DX2 analyti!
 ! A95   A(37,45,46)      116.0468  115.8708  116.303  calculate D2E/DX2 analyti!
 ! A96   A(37,45,47)      106.7421  106.8206  106.3118 calculate D2E/DX2 analyti!
 ! A97   A(37,45,48)      105.4161  105.4936  105.6104 calculate D2E/DX2 analyti!
 ! A98   A(46,45,47)      109.5368  109.4775  110.0756 calculate D2E/DX2 analyti!
 ! A99   A(46,45,48)      111.1679  111.2578  110.4031 calculate D2E/DX2 analyti!
 ! A100  A(47,45,48)      107.5019  107.5051  107.7087 calculate D2E/DX2 analyti!
 ! A101  A(45,46,49)      107.0585  107.2284  106.8526 calculate D2E/DX2 analyti!
 ! A102  A(45,46,50)      112.5324  112.2164  113.7831 calculate D2E/DX2 analyti!
 ! A103  A(45,46,51)      114.2739  114.4156  112.536  calculate D2E/DX2 analyti!
 ! A104  A(49,46,50)      107.571   107.5409  107.5217 calculate D2E/DX2 analyti!
 ! A105  A(49,46,51)      108.0014  108.2096  107.0319 calculate D2E/DX2 analyti!
 ! A106  A(50,46,51)      107.1361  106.9748  108.7651 calculate D2E/DX2 analyti!
 ! A107  A(37,52,53)      116.1466  116.0123  116.21   calculate D2E/DX2 analyti!
 ! A108  A(37,52,54)      105.921   105.9493  106.1347 calculate D2E/DX2 analyti!
 ! A109  A(37,52,55)      105.0857  105.1486  105.5281 calculate D2E/DX2 analyti!
 ! A110  A(53,52,54)      109.7655  109.7906  109.6414 calculate D2E/DX2 analyti!
 ! A111  A(53,52,55)      110.7093  110.6477  110.5687 calculate D2E/DX2 analyti!
 ! A112  A(54,52,55)      108.8735  108.9706  108.4033 calculate D2E/DX2 analyti!
 ! A113  A(52,53,56)      107.3914  107.5628  107.0716 calculate D2E/DX2 analyti!
 ! A114  A(52,53,57)      113.2769  112.7548  112.5913 calculate D2E/DX2 analyti!
 ! A115  A(52,53,58)      113.5696  113.6367  113.2187 calculate D2E/DX2 analyti!
 ! A116  A(56,53,57)      105.3276  105.9343  106.5813 calculate D2E/DX2 analyti!
 ! A117  A(56,53,58)      107.0302  107.1331  107.5092 calculate D2E/DX2 analyti!
 ! A118  A(57,53,58)      109.6885  109.3573  109.4954 calculate D2E/DX2 analyti!
 ! A119  A(37,59,60)      116.8574  116.636   116.8456 calculate D2E/DX2 analyti!
 ! A120  A(37,59,61)      105.5248  105.5971  106.0025 calculate D2E/DX2 analyti!
 ! A121  A(37,59,62)      105.6091  105.8473  106.1152 calculate D2E/DX2 analyti!
 ! A122  A(60,59,61)      110.7988  111.2401  109.9902 calculate D2E/DX2 analyti!
 ! A123  A(60,59,62)      109.692   108.999   110.3092 calculate D2E/DX2 analyti!
 ! A124  A(61,59,62)      107.8927  108.1021  107.0616 calculate D2E/DX2 analyti!
 ! A125  A(59,60,63)      106.5769  106.5825  106.495  calculate D2E/DX2 analyti!
 ! A126  A(59,60,64)      113.3619  113.5912  113.2858 calculate D2E/DX2 analyti!
 ! A127  A(59,60,65)      112.7092  112.46    112.9287 calculate D2E/DX2 analyti!
 ! A128  A(63,60,64)      106.7347  107.0822  106.34   calculate D2E/DX2 analyti!
 ! A129  A(63,60,65)      107.118   106.8997  107.6541 calculate D2E/DX2 analyti!
 ! A130  A(64,60,65)      109.911   109.807   109.7152 calculate D2E/DX2 analyti!
 ! A131  A(5,61,59)       166.913   160.5421  163.5077 calculate D2E/DX2 analyti!
 ! A132  A(36,62,59)      127.5209  130.8231  123.422  calculate D2E/DX2 analyti!
 ! A133  A(29,67,68)      115.7341   92.3444  119.3767 calculate D2E/DX2 analyti!
 ! A134  A(29,67,69)      105.1463   93.0403  112.496  calculate D2E/DX2 analyti!
 ! A135  L(68,67,69,29,-1)  220.8804  185.3847  231.8726 calculate D2E/DX2 analy!
 ! A136  L(68,67,69,29,-2)  181.8135  179.6077  180.9635 calculate D2E/DX2 analy!
 ! A137  A(32,68,34)       64.3406   55.9338   61.612  calculate D2E/DX2 analyti!
 ! A138  A(32,68,67)      102.9977  120.618   112.0828 calculate D2E/DX2 analyti!
 ! A139  A(34,68,67)      101.2982   86.461    93.7267 calculate D2E/DX2 analyti!
 ! A140  A(26,69,67)       96.3346   86.3575  138.4333 calculate D2E/DX2 analyti!
 ! D1    D(1,2,3,4)         6.0159    5.9543    5.5088 calculate D2E/DX2 analyti!
 ! D2    D(1,2,3,12)     -172.2172 -172.8455 -173.4136 calculate D2E/DX2 analyti!
 ! D3    D(20,2,3,4)      178.0532  178.8622  178.937  calculate D2E/DX2 analyti!
 ! D4    D(20,2,3,12)      -0.18      0.0624    0.0146 calculate D2E/DX2 analyti!
 ! D5    D(1,2,20,11)     158.1938  162.0278  165.144  calculate D2E/DX2 analyti!
 ! D6    D(1,2,20,21)     -22.1467  -18.0354  -14.7004 calculate D2E/DX2 analyti!
 ! D7    D(3,2,20,11)       0.4105   -0.0149    0.0305 calculate D2E/DX2 analyti!
 ! D8    D(3,2,20,21)    -179.93    179.9219 -179.8139 calculate D2E/DX2 analyti!
 ! D9    D(2,3,12,11)      -0.0924   -0.0868   -0.0521 calculate D2E/DX2 analyti!
 ! D10   D(2,3,12,13)     178.0251  179.5746  179.7946 calculate D2E/DX2 analyti!
 ! D11   D(4,3,12,11)    -178.0441 -178.6776 -178.7775 calculate D2E/DX2 analyti!
 ! D12   D(4,3,12,13)       0.0734    0.9839    1.0692 calculate D2E/DX2 analyti!
 ! D13   D(24,5,6,7)     -178.8159 -179.4035 -179.8095 calculate D2E/DX2 analyti!
 ! D14   D(24,5,6,18)      -0.437    -0.4019   -0.2031 calculate D2E/DX2 analyti!
 ! D15   D(61,5,6,7)      -91.644   -86.2937  -91.4872 calculate D2E/DX2 analyti!
 ! D16   D(61,5,6,18)      86.7349   92.708    88.1192 calculate D2E/DX2 analyti!
 ! D17   D(6,5,24,17)       0.2352    0.7248    0.4808 calculate D2E/DX2 analyti!
 ! D18   D(6,5,24,25)    -178.6095 -178.412  -178.6701 calculate D2E/DX2 analyti!
 ! D19   D(61,5,24,17)    -78.4719  -80.7206  -94.7806 calculate D2E/DX2 analyti!
 ! D20   D(61,5,24,25)    102.6834  100.1426   86.0685 calculate D2E/DX2 analyti!
 ! D21   D(6,5,61,59)    -133.7218 -135.3297   -1.6475 calculate D2E/DX2 analyti!
 ! D22   D(24,5,61,59)    -30.152   -32.8273  101.4736 calculate D2E/DX2 analyti!
 ! D23   D(5,6,18,17)       0.5024   -0.0219   -0.1212 calculate D2E/DX2 analyti!
 ! D24   D(5,6,18,19)    -178.3321  178.2038  178.4258 calculate D2E/DX2 analyti!
 ! D25   D(7,6,18,17)     178.7719  178.9119  179.4592 calculate D2E/DX2 analyti!
 ! D26   D(7,6,18,19)      -0.0625   -2.8624   -1.9938 calculate D2E/DX2 analyti!
 ! D27   D(22,8,9,10)     179.7073  179.9987  179.9333 calculate D2E/DX2 analyti!
 ! D28   D(22,8,9,15)       0.1765    0.1329   -0.0885 calculate D2E/DX2 analyti!
 ! D29   D(9,8,22,14)       0.0352    0.3438    0.7429 calculate D2E/DX2 analyti!
 ! D30   D(9,8,22,23)    -177.6094 -177.6012 -179.1427 calculate D2E/DX2 analyti!
 ! D31   D(8,9,15,14)      -0.3236   -0.5452   -0.5596 calculate D2E/DX2 analyti!
 ! D32   D(8,9,15,16)     174.0857  177.0591  177.0307 calculate D2E/DX2 analyti!
 ! D33   D(10,9,15,14)   -179.8266  179.5968  179.4174 calculate D2E/DX2 analyti!
 ! D34   D(10,9,15,16)     -5.4173   -2.799    -2.9924 calculate D2E/DX2 analyti!
 ! D35   D(20,11,12,3)      0.3276    0.0735    0.0674 calculate D2E/DX2 analyti!
 ! D36   D(20,11,12,13)  -177.7862 -179.6087 -179.7899 calculate D2E/DX2 analyti!
 ! D37   D(26,11,12,3)   -174.8999  175.5991  172.5435 calculate D2E/DX2 analyti!
 ! D38   D(26,11,12,13)     6.9863   -4.083    -7.3139 calculate D2E/DX2 analyti!
 ! D39   D(12,11,20,2)     -0.4753   -0.0371   -0.0626 calculate D2E/DX2 analyti!
 ! D40   D(12,11,20,21)   179.8629 -179.9747  179.7842 calculate D2E/DX2 analyti!
 ! D41   D(26,11,20,2)    174.8408 -175.827  -172.8538 calculate D2E/DX2 analyti!
 ! D42   D(26,11,20,21)    -4.8209    4.2353    6.9929 calculate D2E/DX2 analyti!
 ! D43   D(12,11,26,14)   -32.4518  -40.7625  -52.2632 calculate D2E/DX2 analyti!
 ! D44   D(12,11,26,17)  -133.2369 -158.2096 -173.5988 calculate D2E/DX2 analyti!
 ! D45   D(12,11,26,29)    94.8816   80.6822   92.3831 calculate D2E/DX2 analyti!
 ! D46   D(12,11,26,69)    46.7632   68.6798   57.6053 calculate D2E/DX2 analyti!
 ! D47   D(20,11,26,14)   153.2758  133.9836  118.8418 calculate D2E/DX2 analyti!
 ! D48   D(20,11,26,17)    52.4907   16.5365   -2.4939 calculate D2E/DX2 analyti!
 ! D49   D(20,11,26,29)   -79.3908 -104.5717  -96.5119 calculate D2E/DX2 analyti!
 ! D50   D(20,11,26,69)  -127.5093 -116.5741 -131.2897 calculate D2E/DX2 analyti!
 ! D51   D(22,14,15,9)      0.3168    0.6966    0.9383 calculate D2E/DX2 analyti!
 ! D52   D(22,14,15,16)  -174.3234 -177.0873 -176.8391 calculate D2E/DX2 analyti!
 ! D53   D(26,14,15,9)    158.9534  175.1881 -176.9081 calculate D2E/DX2 analyti!
 ! D54   D(26,14,15,16)   -15.6868   -2.5958    5.3145 calculate D2E/DX2 analyti!
 ! D55   D(15,14,22,8)     -0.2249   -0.6666   -1.0771 calculate D2E/DX2 analyti!
 ! D56   D(15,14,22,23)   177.4293  177.3284  178.8123 calculate D2E/DX2 analyti!
 ! D57   D(26,14,22,8)   -161.3059 -175.951   177.1613 calculate D2E/DX2 analyti!
 ! D58   D(26,14,22,23)    16.3482    2.044    -2.9494 calculate D2E/DX2 analyti!
 ! D59   D(15,14,26,11)   -41.1385  -60.9145  -70.8689 calculate D2E/DX2 analyti!
 ! D60   D(15,14,26,17)    61.8776   55.2864   48.9087 calculate D2E/DX2 analyti!
 ! D61   D(15,14,26,29)  -175.338   178.0969  133.5173 calculate D2E/DX2 analyti!
 ! D62   D(15,14,26,69)  -118.1224 -127.128   176.4454 calculate D2E/DX2 analyti!
 ! D63   D(22,14,26,11)   113.9527  112.7132  111.5736 calculate D2E/DX2 analyti!
 ! D64   D(22,14,26,17)  -143.0311 -131.086  -128.6488 calculate D2E/DX2 analyti!
 ! D65   D(22,14,26,29)   -20.2467   -8.2755  -44.0403 calculate D2E/DX2 analyti!
 ! D66   D(22,14,26,69)    36.9689   46.4996   -1.1121 calculate D2E/DX2 analyti!
 ! D67   D(24,17,18,6)     -0.3323    0.4303    0.385  calculate D2E/DX2 analyti!
 ! D68   D(24,17,18,19)   178.6017 -177.9295 -178.2866 calculate D2E/DX2 analyti!
 ! D69   D(26,17,18,6)   -165.0085 -164.8744 -164.2454 calculate D2E/DX2 analyti!
 ! D70   D(26,17,18,19)    13.9254   16.7658   17.0831 calculate D2E/DX2 analyti!
 ! D71   D(18,17,24,5)      0.0589   -0.7419   -0.5553 calculate D2E/DX2 analyti!
 ! D72   D(18,17,24,25)   178.9263  178.4146  178.6132 calculate D2E/DX2 analyti!
 ! D73   D(26,17,24,5)    162.1882  166.0758  164.6949 calculate D2E/DX2 analyti!
 ! D74   D(26,17,24,25)   -18.9444  -14.7676  -16.1366 calculate D2E/DX2 analyti!
 ! D75   D(18,17,26,11)   -89.0637  -80.335   -81.8042 calculate D2E/DX2 analyti!
 ! D76   D(18,17,26,14)   163.0529  164.2908  158.6089 calculate D2E/DX2 analyti!
 ! D77   D(18,17,26,29)    45.7431   40.9199   54.3355 calculate D2E/DX2 analyti!
 ! D78   D(18,17,26,69)   -56.2981  -12.5535   40.194  calculate D2E/DX2 analyti!
 ! D79   D(24,17,26,11)   111.5554  116.8755  116.6996 calculate D2E/DX2 analyti!
 ! D80   D(24,17,26,14)     3.672     1.5013   -2.8873 calculate D2E/DX2 analyti!
 ! D81   D(24,17,26,29)  -113.6378 -121.8697 -107.1607 calculate D2E/DX2 analyti!
 ! D82   D(24,17,26,69)   144.3211 -175.343  -121.3022 calculate D2E/DX2 analyti!
 ! D83   D(11,26,29,27)   144.1618  150.4109   61.2179 calculate D2E/DX2 analyti!
 ! D84   D(11,26,29,67)   -59.2962  -31.2868  -57.399  calculate D2E/DX2 analyti!
 ! D85   D(14,26,29,27)   -90.3464  -91.2116 -153.8261 calculate D2E/DX2 analyti!
 ! D86   D(14,26,29,67)    66.1955   87.0907   87.5571 calculate D2E/DX2 analyti!
 ! D87   D(17,26,29,27)    19.7418   31.0182  -44.6687 calculate D2E/DX2 analyti!
 ! D88   D(17,26,29,67)   176.2837 -150.6795 -163.2856 calculate D2E/DX2 analyti!
 ! D89   D(11,26,69,67)   139.4399 -157.0505  147.4792 calculate D2E/DX2 analyti!
 ! D90   D(14,26,69,67)  -112.6767  -60.7585  -98.5244 calculate D2E/DX2 analyti!
 ! D91   D(17,26,69,67)   106.6742  115.9742   24.4237 calculate D2E/DX2 analyti!
 ! D92   D(29,27,28,31)   -42.6788  -55.1834  -21.7675 calculate D2E/DX2 analyti!
 ! D93   D(29,27,28,32)    80.7505   67.9806  102.7818 calculate D2E/DX2 analyti!
 ! D94   D(29,27,28,66)  -159.8077 -172.9168 -138.4502 calculate D2E/DX2 analyti!
 ! D95   D(30,27,28,31)  -167.4297 -176.5521 -149.7607 calculate D2E/DX2 analyti!
 ! D96   D(30,27,28,32)   -44.0005  -53.3882  -25.2114 calculate D2E/DX2 analyti!
 ! D97   D(30,27,28,66)    75.4413   65.7145   93.5566 calculate D2E/DX2 analyti!
 ! D98   D(36,27,28,31)    70.2056   64.4189   90.321  calculate D2E/DX2 analyti!
 ! D99   D(36,27,28,32)  -166.3651 -172.4172 -145.1297 calculate D2E/DX2 analyti!
 ! D100  D(36,27,28,66)   -46.9233  -53.3145  -26.3617 calculate D2E/DX2 analyti!
 ! D101  D(28,27,29,26)    96.8911  101.1548 -176.9155 calculate D2E/DX2 analyti!
 ! D102  D(28,27,29,67)   -55.3455  -77.1419  -61.5302 calculate D2E/DX2 analyti!
 ! D103  D(30,27,29,26)  -136.8403 -136.5818  -48.6781 calculate D2E/DX2 analyti!
 ! D104  D(30,27,29,67)    70.923    45.1214   66.7073 calculate D2E/DX2 analyti!
 ! D105  D(36,27,29,26)   -18.7459  -16.293    67.7004 calculate D2E/DX2 analyti!
 ! D106  D(36,27,29,67)  -170.9825  165.4102 -176.9142 calculate D2E/DX2 analyti!
 ! D107  D(28,27,30,33)  -178.4455  176.9783 -177.9724 calculate D2E/DX2 analyti!
 ! D108  D(28,27,30,34)    61.728    58.0071   61.5243 calculate D2E/DX2 analyti!
 ! D109  D(28,27,30,35)   -59.0292  -62.5155  -58.717  calculate D2E/DX2 analyti!
 ! D110  D(29,27,30,33)    58.6044   58.4829   54.8974 calculate D2E/DX2 analyti!
 ! D111  D(29,27,30,34)   -61.2221  -60.4883  -65.606  calculate D2E/DX2 analyti!
 ! D112  D(29,27,30,35)   178.0207  178.9891  174.1527 calculate D2E/DX2 analyti!
 ! D113  D(36,27,30,33)   -56.4939  -63.8559  -58.1789 calculate D2E/DX2 analyti!
 ! D114  D(36,27,30,34)  -176.3204  177.1729 -178.6822 calculate D2E/DX2 analyti!
 ! D115  D(36,27,30,35)    62.9224   56.6503   61.0765 calculate D2E/DX2 analyti!
 ! D116  D(28,27,36,62)   -27.6562    1.0553  -83.451  calculate D2E/DX2 analyti!
 ! D117  D(29,27,36,62)    87.6482  117.197    34.0848 calculate D2E/DX2 analyti!
 ! D118  D(30,27,36,62)  -152.8214 -120.7436  153.5974 calculate D2E/DX2 analyti!
 ! D119  D(27,28,32,68)   -41.768   -32.4211  -57.0381 calculate D2E/DX2 analyti!
 ! D120  D(31,28,32,68)    82.1      91.3717   68.7176 calculate D2E/DX2 analyti!
 ! D121  D(66,28,32,68)  -163.86   -156.2366 -178.3063 calculate D2E/DX2 analyti!
 ! D122  D(26,29,67,68)  -172.0429 -131.9278 -176.6897 calculate D2E/DX2 analyti!
 ! D123  D(26,29,67,69)     6.1435   48.4645    2.3468 calculate D2E/DX2 analyti!
 ! D124  D(27,29,67,68)    -9.8872   46.5232   11.075  calculate D2E/DX2 analyti!
 ! D125  D(27,29,67,69)   168.2992 -133.0844 -169.8885 calculate D2E/DX2 analyti!
 ! D126  D(27,30,34,68)    15.4621   19.402    13.2013 calculate D2E/DX2 analyti!
 ! D127  D(33,30,34,68)  -104.6479  -99.8455 -107.6282 calculate D2E/DX2 analyti!
 ! D128  D(35,30,34,68)   136.6542  141.9706  133.6839 calculate D2E/DX2 analyti!
 ! D129  D(28,32,68,34)    81.3684   68.7517   95.2573 calculate D2E/DX2 analyti!
 ! D130  D(28,32,68,67)   -15.0724    7.8803   13.2777 calculate D2E/DX2 analyti!
 ! D131  D(30,34,68,32)   -66.7724  -61.5151  -69.7828 calculate D2E/DX2 analyti!
 ! D132  D(30,34,68,67)    32.3459   69.6183   43.3608 calculate D2E/DX2 analyti!
 ! D133  D(27,36,62,59)   173.0418  166.3426 -174.355  calculate D2E/DX2 analyti!
 ! D134  D(45,37,38,39)   -37.6356  -36.7967  -37.2715 calculate D2E/DX2 analyti!
 ! D135  D(45,37,38,40)  -160.9948 -160.4592 -161.1579 calculate D2E/DX2 analyti!
 ! D136  D(45,37,38,41)    84.4232   85.0847   84.2712 calculate D2E/DX2 analyti!
 ! D137  D(52,37,38,39)  -155.0544 -154.2971 -155.1841 calculate D2E/DX2 analyti!
 ! D138  D(52,37,38,40)    81.5864   82.0405   80.9295 calculate D2E/DX2 analyti!
 ! D139  D(52,37,38,41)   -32.9957  -32.4157  -33.6414 calculate D2E/DX2 analyti!
 ! D140  D(59,37,38,39)    86.781    87.6317   86.4613 calculate D2E/DX2 analyti!
 ! D141  D(59,37,38,40)   -36.5782  -36.0307  -37.425  calculate D2E/DX2 analyti!
 ! D142  D(59,37,38,41)  -151.1602 -150.4869 -151.9959 calculate D2E/DX2 analyti!
 ! D143  D(38,37,45,46)   177.4507  175.6205 -171.2304 calculate D2E/DX2 analyti!
 ! D144  D(38,37,45,47)    55.0584   53.3618   65.8394 calculate D2E/DX2 analyti!
 ! D145  D(38,37,45,48)   -59.066   -60.836   -48.4181 calculate D2E/DX2 analyti!
 ! D146  D(52,37,45,46)   -65.1149  -66.9247  -53.4372 calculate D2E/DX2 analyti!
 ! D147  D(52,37,45,47)   172.4928  170.8165 -176.3674 calculate D2E/DX2 analyti!
 ! D148  D(52,37,45,48)    58.3684   56.6188   69.3751 calculate D2E/DX2 analyti!
 ! D149  D(59,37,45,46)    52.7317   50.9347   64.3078 calculate D2E/DX2 analyti!
 ! D150  D(59,37,45,47)   -69.6605  -71.3241  -58.6225 calculate D2E/DX2 analyti!
 ! D151  D(59,37,45,48)   176.215   174.4782 -172.88   calculate D2E/DX2 analyti!
 ! D152  D(38,37,52,53)   -54.9686  -55.4216  -49.543  calculate D2E/DX2 analyti!
 ! D153  D(38,37,52,54)  -177.0944 -177.5147 -171.7127 calculate D2E/DX2 analyti!
 ! D154  D(38,37,52,55)    67.7371   67.1673   73.3593 calculate D2E/DX2 analyti!
 ! D155  D(45,37,52,53)  -173.8971 -174.6707 -168.368  calculate D2E/DX2 analyti!
 ! D156  D(45,37,52,54)    63.977    63.2362   69.4624 calculate D2E/DX2 analyti!
 ! D157  D(45,37,52,55)   -51.1914  -52.0817  -45.4656 calculate D2E/DX2 analyti!
 ! D158  D(59,37,52,53)    65.8871   65.201    71.7366 calculate D2E/DX2 analyti!
 ! D159  D(59,37,52,54)   -56.2388  -56.8921  -50.433  calculate D2E/DX2 analyti!
 ! D160  D(59,37,52,55)  -171.4073 -172.21   -165.361  calculate D2E/DX2 analyti!
 ! D161  D(38,37,59,60)   -66.809   -65.2638  -53.0083 calculate D2E/DX2 analyti!
 ! D162  D(38,37,59,61)   169.5654  170.6256 -175.9479 calculate D2E/DX2 analyti!
 ! D163  D(38,37,59,62)    55.443    56.133    70.4381 calculate D2E/DX2 analyti!
 ! D164  D(45,37,59,60)    56.9454   58.7453   70.0626 calculate D2E/DX2 analyti!
 ! D165  D(45,37,59,61)   -66.6801  -65.3652  -52.8771 calculate D2E/DX2 analyti!
 ! D166  D(45,37,59,62)   179.1974 -179.8578 -166.4911 calculate D2E/DX2 analyti!
 ! D167  D(52,37,59,60)   174.9025  176.6573 -171.7142 calculate D2E/DX2 analyti!
 ! D168  D(52,37,59,61)    51.2769   52.5467   65.3461 calculate D2E/DX2 analyti!
 ! D169  D(52,37,59,62)   -62.8456  -61.9459  -48.2679 calculate D2E/DX2 analyti!
 ! D170  D(37,38,39,42)  -173.836  -173.8106 -175.3428 calculate D2E/DX2 analyti!
 ! D171  D(37,38,39,43)   -55.8885  -55.8173  -57.3658 calculate D2E/DX2 analyti!
 ! D172  D(37,38,39,44)    68.676    68.7308   67.2025 calculate D2E/DX2 analyti!
 ! D173  D(40,38,39,42)   -52.4469  -52.371   -53.3451 calculate D2E/DX2 analyti!
 ! D174  D(40,38,39,43)    65.5006   65.6222   64.6319 calculate D2E/DX2 analyti!
 ! D175  D(40,38,39,44)  -169.935  -169.8296 -170.7999 calculate D2E/DX2 analyti!
 ! D176  D(41,38,39,42)    65.7125   65.85     64.6538 calculate D2E/DX2 analyti!
 ! D177  D(41,38,39,43)  -176.34   -176.1567 -177.3692 calculate D2E/DX2 analyti!
 ! D178  D(41,38,39,44)   -51.7755  -51.6086  -52.801  calculate D2E/DX2 analyti!
 ! D179  D(37,45,46,49)   174.6243  171.9565 -175.7626 calculate D2E/DX2 analyti!
 ! D180  D(37,45,46,50)   -67.3945  -70.1714  -57.2556 calculate D2E/DX2 analyti!
 ! D181  D(37,45,46,51)    55.0869   51.9517   67.0408 calculate D2E/DX2 analyti!
 ! D182  D(47,45,46,49)   -64.469   -67.2034  -54.8173 calculate D2E/DX2 analyti!
 ! D183  D(47,45,46,50)    53.5122   50.6687   63.6897 calculate D2E/DX2 analyti!
 ! D184  D(47,45,46,51)   175.9936  172.7917 -172.0139 calculate D2E/DX2 analyti!
 ! D185  D(48,45,46,49)    54.1905   51.4778   63.9642 calculate D2E/DX2 analyti!
 ! D186  D(48,45,46,50)   172.1717  169.3499 -177.5288 calculate D2E/DX2 analyti!
 ! D187  D(48,45,46,51)   -65.3469  -68.5271  -53.2324 calculate D2E/DX2 analyti!
 ! D188  D(37,52,53,56)   177.4406  177.5688  179.5856 calculate D2E/DX2 analyti!
 ! D189  D(37,52,53,57)   -66.6921  -66.007   -63.599  calculate D2E/DX2 analyti!
 ! D190  D(37,52,53,58)    59.3099   59.1567   61.278  calculate D2E/DX2 analyti!
 ! D191  D(54,52,53,56)   -62.4856  -62.3945  -60.1114 calculate D2E/DX2 analyti!
 ! D192  D(54,52,53,57)    53.3817   54.0297   56.704  calculate D2E/DX2 analyti!
 ! D193  D(54,52,53,58)   179.3837  179.1933 -178.4189 calculate D2E/DX2 analyti!
 ! D194  D(55,52,53,56)    57.7347   57.9236   59.358  calculate D2E/DX2 analyti!
 ! D195  D(55,52,53,57)   173.602   174.3477  176.1734 calculate D2E/DX2 analyti!
 ! D196  D(55,52,53,58)   -60.396   -60.4886  -58.9496 calculate D2E/DX2 analyti!
 ! D197  D(37,59,60,63)  -171.2847 -172.1156 -172.268  calculate D2E/DX2 analyti!
 ! D198  D(37,59,60,64)   -54.166   -54.4388  -55.7248 calculate D2E/DX2 analyti!
 ! D199  D(37,59,60,65)    71.4902   71.0566   69.7833 calculate D2E/DX2 analyti!
 ! D200  D(61,59,60,63)   -50.4021  -50.9405  -51.4102 calculate D2E/DX2 analyti!
 ! D201  D(61,59,60,64)    66.7165   66.7364   65.133  calculate D2E/DX2 analyti!
 ! D202  D(61,59,60,65)  -167.6273 -167.7682 -169.3589 calculate D2E/DX2 analyti!
 ! D203  D(62,59,60,63)    68.611    68.163    66.4643 calculate D2E/DX2 analyti!
 ! D204  D(62,59,60,64)  -174.2703 -174.1602 -176.9925 calculate D2E/DX2 analyti!
 ! D205  D(62,59,60,65)   -48.6142  -48.6648  -51.4844 calculate D2E/DX2 analyti!
 ! D206  D(37,59,61,5)    -66.9608  -63.593  -177.2003 calculate D2E/DX2 analyti!
 ! D207  D(60,59,61,5)    165.6606  168.9704   55.6255 calculate D2E/DX2 analyti!
 ! D208  D(62,59,61,5)     45.5675   49.3322  -64.2413 calculate D2E/DX2 analyti!
 ! D209  D(37,59,62,36)  -171.0618  160.452  -135.7292 calculate D2E/DX2 analyti!
 ! D210  D(60,59,62,36)   -44.321   -73.347    -8.2737 calculate D2E/DX2 analyti!
 ! D211  D(61,59,62,36)    76.4666   47.6941  111.3885 calculate D2E/DX2 analyti!
 ! D212  D(29,67,68,32)    37.4049   -7.1021   12.7181 calculate D2E/DX2 analyti!
 ! D213  D(29,67,68,34)   -28.5741  -53.5714  -48.0897 calculate D2E/DX2 analyti!
 ! D214  D(29,67,69,26)    -5.6103  -19.4371   -5.5096 calculate D2E/DX2 analyti!
 --------------------------------------------------------------------------------
 Trust Radius=3.00D-01 FncErr=1.00D-07 GrdErr=1.00D-06 EigMax=2.50D+02 EigMin=1.00D-04
 Number of steps in this run=    414 maximum allowed number of steps=    414.
 Search for a saddle point of order  1.
 GradGradGradGradGradGradGradGradGradGradGradGradGradGradGradGradGradGrad

 Symmetry turned off by external request.
 Stoichiometry    C21H29BrCl6CoLiN7O3(4)
 Framework group  C1[X(C21H29BrCl6CoLiN7O3)]
 Deg. of freedom   201
 Full point group                 C1      NOp   1
                          Input orientation:                          
 ---------------------------------------------------------------------
 Center     Atomic      Atomic             Coordinates (Angstroms)
 Number     Number       Type             X           Y           Z
 ---------------------------------------------------------------------
      1          3           0       -0.658675   -5.046050   -3.464551
      2          7           0       -0.328503   -3.614128   -2.281851
      3          6           0       -1.626426   -3.406730   -1.917495
      4         17           0       -2.840859   -4.524720   -2.490186
      5          7           0        2.258553    2.612748   -2.483166
      6          6           0        3.205187    1.697204   -2.162308
      7         17           0        4.870042    1.887782   -2.600722
      8          7           0       -3.379045    2.028544    1.064047
      9          6           0       -3.485741    2.085555   -0.281597
     10         17           0       -4.895102    2.698159   -1.079044
     11          7           0       -0.481989   -1.755214   -1.038808
     12          6           0       -1.743057   -2.280098   -1.161509
     13         17           0       -3.184933   -1.623093   -0.535212
     14          7           0       -1.484736    1.210723    0.123128
     15          6           0       -2.348446    1.589905   -0.868195
     16         17           0       -2.065995    1.323800   -2.552771
     17          7           0        1.302303    0.927967   -1.296864
     18          6           0        2.637392    0.678613   -1.439343
     19         17           0        3.387408   -0.718127   -0.747022
     20          6           0        0.313035   -2.579484   -1.724609
     21          1           0        1.378309   -2.423979   -1.813781
     22          6           0       -2.178672    1.503679    1.252230
     23          1           0       -1.790032    1.285010    2.236960
     24          6           0        1.145061    2.104081   -1.946445
     25          1           0        0.178218    2.575131   -2.032342
     26         27           0        0.123649   -0.102967    0.112357
     27          6           0        1.859073    0.295136    2.822437
     28          6           0        1.159935    1.309828    3.727182
     29          8           0        0.873351   -0.307043    1.983352
     30          6           0        2.667170   -0.750020    3.571295
     31          1           0        0.429097    1.889211    3.165706
     32          1           0        0.683679    0.839136    4.581660
     33          1           0        3.154805   -1.416549    2.856539
     34          1           0        2.009515   -1.335682    4.213802
     35          1           0        3.437208   -0.268289    4.179236
     36          1           0        2.514267    0.835166    2.131290
     37          7           0        2.444192    5.172364    0.605655
     38          6           0        2.226289    5.746909    1.999299
     39          6           0        3.407144    6.424874    2.678251
     40          1           0        1.871478    4.919179    2.613306
     41          1           0        1.412228    6.467573    1.900709
     42          1           0        3.088554    6.666308    3.695359
     43          1           0        4.286884    5.787716    2.757450
     44          1           0        3.690901    7.362519    2.197813
     45          6           0        3.356164    6.078270   -0.195874
     46          6           0        3.712709    5.598775   -1.593806
     47          1           0        4.264959    6.204176    0.388290
     48          1           0        2.849243    7.046128   -0.227898
     49          1           0        4.287676    6.397297   -2.069763
     50          1           0        4.337578    4.704974   -1.582369
     51          1           0        2.852539    5.380919   -2.225411
     52          6           0        1.087794    5.129807   -0.101119
     53          6           0       -0.020407    4.385866    0.622176
     54          1           0        1.270166    4.667629   -1.069795
     55          1           0        0.814228    6.176416   -0.254759
     56          1           0       -0.926920    4.483560    0.019431
     57          1           0        0.159843    3.313948    0.699692
     58          1           0       -0.247286    4.792770    1.608815
     59          6           0        2.981714    3.750868    0.656667
     60          6           0        4.381393    3.566805    1.212985
     61          1           0        2.919691    3.379155   -0.364392
     62          1           0        2.270237    3.190136    1.260567
     63          1           0        4.655871    2.525235    1.028230
     64          1           0        5.130759    4.182935    0.712257
     65          1           0        4.430209    3.725181    2.290155
     66         35           0        2.437940    2.624842    4.446368
     67          6           0       -0.372239   -0.999513    2.566274
     68          8           0       -0.369269   -1.163697    3.763321
     69          8           0       -1.119089   -1.189954    1.598198
 ---------------------------------------------------------------------
 Rotational constants (GHZ):           0.0776310           0.0430632           0.0423616
 General basis read from cards:  (5D, 7F)
 ======================================================================================================
                                       Pseudopotential Parameters
 ======================================================================================================
  Center     Atomic      Valence      Angular      Power
  Number     Number     Electrons     Momentum     of R      Exponent        Coefficient   SO-Coeffient
 ======================================================================================================
    1          3
                                   No pseudopotential on this center.
    2          7
                                   No pseudopotential on this center.
    3          6
                                   No pseudopotential on this center.
    4         17
                                   No pseudopotential on this center.
    5          7
                                   No pseudopotential on this center.
    6          6
                                   No pseudopotential on this center.
    7         17
                                   No pseudopotential on this center.
    8          7
                                   No pseudopotential on this center.
    9          6
                                   No pseudopotential on this center.
   10         17
                                   No pseudopotential on this center.
   11          7
                                   No pseudopotential on this center.
   12          6
                                   No pseudopotential on this center.
   13         17
                                   No pseudopotential on this center.
   14          7
                                   No pseudopotential on this center.
   15          6
                                   No pseudopotential on this center.
   16         17
                                   No pseudopotential on this center.
   17          7
                                   No pseudopotential on this center.
   18          6
                                   No pseudopotential on this center.
   19         17
                                   No pseudopotential on this center.
   20          6
                                   No pseudopotential on this center.
   21          1
                                   No pseudopotential on this center.
   22          6
                                   No pseudopotential on this center.
   23          1
                                   No pseudopotential on this center.
   24          6
                                   No pseudopotential on this center.
   25          1
                                   No pseudopotential on this center.
   26         27           17
                                      D and up 
                                                     1      434.1076104      -10.00000000    0.00000000
                                                     2       78.8402758      -66.72402760    0.00000000
                                                     2       19.6037749      -11.71922430    0.00000000
                                      S - D
                                                     0      151.2307582        3.00000000    0.00000000
                                                     1      169.6790026       20.15531100    0.00000000
                                                     2       64.9909423      413.37622440    0.00000000
                                                     2       12.5076287      133.87277050    0.00000000
                                      P - D
                                                     0       92.7319924        5.00000000    0.00000000
                                                     1      121.1910183        6.18923530    0.00000000
                                                     2       48.6265909      326.32159190    0.00000000
                                                     2       11.9966971       73.87889700    0.00000000
   27          6
                                   No pseudopotential on this center.
   28          6
                                   No pseudopotential on this center.
   29          8
                                   No pseudopotential on this center.
   30          6
                                   No pseudopotential on this center.
   31          1
                                   No pseudopotential on this center.
   32          1
                                   No pseudopotential on this center.
   33          1
                                   No pseudopotential on this center.
   34          1
                                   No pseudopotential on this center.
   35          1
                                   No pseudopotential on this center.
   36          1
                                   No pseudopotential on this center.
   37          7
                                   No pseudopotential on this center.
   38          6
                                   No pseudopotential on this center.
   39          6
                                   No pseudopotential on this center.
   40          1
                                   No pseudopotential on this center.
   41          1
                                   No pseudopotential on this center.
   42          1
                                   No pseudopotential on this center.
   43          1
                                   No pseudopotential on this center.
   44          1
                                   No pseudopotential on this center.
   45          6
                                   No pseudopotential on this center.
   46          6
                                   No pseudopotential on this center.
   47          1
                                   No pseudopotential on this center.
   48          1
                                   No pseudopotential on this center.
   49          1
                                   No pseudopotential on this center.
   50          1
                                   No pseudopotential on this center.
   51          1
                                   No pseudopotential on this center.
   52          6
                                   No pseudopotential on this center.
   53          6
                                   No pseudopotential on this center.
   54          1
                                   No pseudopotential on this center.
   55          1
                                   No pseudopotential on this center.
   56          1
                                   No pseudopotential on this center.
   57          1
                                   No pseudopotential on this center.
   58          1
                                   No pseudopotential on this center.
   59          6
                                   No pseudopotential on this center.
   60          6
                                   No pseudopotential on this center.
   61          1
                                   No pseudopotential on this center.
   62          1
                                   No pseudopotential on this center.
   63          1
                                   No pseudopotential on this center.
   64          1
                                   No pseudopotential on this center.
   65          1
                                   No pseudopotential on this center.
   66         35
                                   No pseudopotential on this center.
   67          6
                                   No pseudopotential on this center.
   68          8
                                   No pseudopotential on this center.
   69          8
                                   No pseudopotential on this center.
 ======================================================================================================
   751 basis functions,  1546 primitive gaussians,   793 cartesian basis functions
   194 alpha electrons      191 beta electrons
       nuclear repulsion energy      7810.7215110863 Hartrees.
 NAtoms=   69 NActive=   69 NUniq=   69 SFac= 1.00D+00 NAtFMM=   60 NAOKFM=T Big=T
 Integral buffers will be    131072 words long.
 Raffenetti 2 integral format.
 Two-electron integral symmetry is turned off.
 One-electron integrals computed using PRISM.
   1 Symmetry operations used in ECPInt.
 ECPInt:  NShTT=   35245 NPrTT=  210561 LenC2=   26935 LenP2D=   83107.
 LDataN:  DoStor=T MaxTD1= 4 Len=   56
 NBasis=   751 RedAO= T EigKep=  1.38D-03  NBF=   751
 NBsUse=   751 1.00D-06 EigRej= -1.00D+00 NBFU=   751
 ExpMin= 2.30D-02 ExpMax= 5.74D+05 ExpMxC= 5.74D+03 IAcc=3 IRadAn=         5 AccDes= 0.00D+00
 Harris functional with IExCor=20419 and IRadAn=       5 diagonalized for initial guess.
 HarFok:  IExCor=20419 AccDes= 0.00D+00 IRadAn=         5 IDoV= 1 UseB2=F ITyADJ=14
 ICtDFT=  3500011 ScaDFX=  1.000000  1.000000  1.000000  1.000000
 FoFCou: FMM=F IPFlag=           0 FMFlag=      100000 FMFlg1=        2001
         NFxFlg=           0 DoJE=T BraDBF=F KetDBF=T FulRan=T
         wScrn=  0.000000 ICntrl=       500 IOpCl=  0 I1Cent=   200000004 NGrid=           0
         NMat0=    1 NMatS0=      1 NMatT0=    0 NMatD0=    1 NMtDS0=    0 NMtDT0=    0
 Symmetry not used in FoFCou.
 Initial guess <Sx>= 0.0000 <Sy>= 0.0000 <Sz>= 1.5000 <S**2>= 3.7500 S= 1.5000
 Gradient too large for Newton-Raphson -- use scaled steepest descent instead.
     Accept linear search using points  3 and  4.
 Gradient too large for Newton-Raphson -- use scaled steepest descent instead.
     Minimum is close to point  2 DX=  1.86D-02 DF= -1.23D-03 DXR=  4.44D-02 DFR=  1.98D-03 which will be used.
 Gradient too large for Newton-Raphson -- use scaled steepest descent instead.
     Accept linear search using points  1 and  2.
 Gradient too large for Newton-Raphson -- use scaled steepest descent instead.
     Accept linear search using points  4 and  5.
 Gradient too large for Newton-Raphson -- use scaled steepest descent instead.
     Minimum is close to point  2 DX=  1.92D-02 DF= -3.11D-05 DXR=  3.10D-02 DFR=  9.62D-04 which will be used.
 Gradient too large for Newton-Raphson -- use scaled steepest descent instead.
     Accept linear search using points  1 and  2.
 Gradient too large for Newton-Raphson -- use scaled steepest descent instead.
 Restarting incremental Fock formation.
     Accept linear search using points  3 and  4.
 Gradient too large for Newton-Raphson -- use scaled steepest descent instead.
     Accept linear search using points  1 and  2.
 Gradient too large for Newton-Raphson -- use scaled steepest descent instead.
     Accept linear search using points  4 and  5.
 Gradient too large for Newton-Raphson -- use scaled steepest descent instead.
     Accept linear search using points  1 and  2.
 Gradient too large for Newton-Raphson -- use scaled steepest descent instead.
     Minimum is close to point  2 DX=  5.24D-02 DF= -1.16D-04 DXR=  5.50D-02 DFR=  3.03D-03 which will be used.
 Gradient too large for Newton-Raphson -- use scaled steepest descent instead.
     Accept linear search using points  1 and  2.
 Gradient too large for Newton-Raphson -- use scaled steepest descent instead.
     Minimum is close to point  3 DX=  7.93D-02 DF= -8.77D-05 DXR=  6.20D-02 DFR=  3.86D-03 which will be used.
 Gradient too large for Newton-Raphson -- use scaled steepest descent instead.
     Accept linear search using points  1 and  2.
 Gradient too large for Newton-Raphson -- use scaled steepest descent instead.
 Restarting incremental Fock formation.
 Gradient too large for Newton-Raphson -- use scaled steepest descent instead.
     Accept linear search using points  1 and  2.
 Gradient too large for Newton-Raphson -- use scaled steepest descent instead.
     Accept linear search using points  2 and  3.
 Gradient too large for Newton-Raphson -- use scaled steepest descent instead.
     Accept linear search using points  1 and  2.
 Gradient too large for Newton-Raphson -- use scaled steepest descent instead.
     Accept linear search using points  2 and  3.
 Gradient too large for Newton-Raphson -- use scaled steepest descent instead.
     Accept linear search using points  1 and  2.
 Gradient too large for Newton-Raphson -- use scaled steepest descent instead.
     Accept linear search using points  2 and  3.
 Gradient too large for Newton-Raphson -- use scaled steepest descent instead.
     Accept linear search using points  1 and  2.
 Gradient too large for Newton-Raphson -- use scaled steepest descent instead.
 Restarting incremental Fock formation.
     Accept linear search using points  2 and  3.
 Gradient too large for Newton-Raphson -- use scaled steepest descent instead.
     Accept linear search using points  1 and  2.
 Gradient too large for Newton-Raphson -- use scaled steepest descent instead.
     Accept linear search using points  2 and  3.
     Minimum is close to point  3 DX= -1.21D-01 DF= -6.68D-06 DXR=  7.23D-02 DFR=  4.62D-03 which will be used.
 Gradient too large for Newton-Raphson -- use scaled steepest descent instead.
     Accept linear search using points  1 and  2.
 Gradient too large for Newton-Raphson -- use scaled steepest descent instead.
     Minimum is close to point  3 DX=  8.43D-03 DF= -2.23D-08 DXR=  4.42D-03 DFR=  1.96D-05 which will be used.
 Gradient too large for Newton-Raphson -- use scaled steepest descent instead.
     Accept linear search using points  1 and  2.
 Gradient too large for Newton-Raphson -- use scaled steepest descent instead.
     Accept linear search using points  2 and  3.
     Minimum is close to point  3 DX= -9.81D-02 DF= -2.18D-06 DXR=  5.16D-02 DFR=  2.67D-03 which will be used.
 Gradient too large for Newton-Raphson -- use scaled steepest descent instead.
     Accept linear search using points  1 and  2.
 Gradient too large for Newton-Raphson -- use scaled steepest descent instead.
 Restarting incremental Fock formation.
     Minimum is close to point  3 DX=  1.25D-01 DF= -2.26D-06 DXR=  5.90D-02 DFR=  3.50D-03 which will be used.
 Gradient too large for Newton-Raphson -- use scaled steepest descent instead.
     Accept linear search using points  1 and  2.
 Gradient too large for Newton-Raphson -- use scaled steepest descent instead.
     Accept linear search using points  2 and  3.
     Minimum is close to point  3 DX= -1.68D-01 DF= -3.74D-06 DXR=  8.71D-02 DFR=  8.32D-03 which will be used.
 Gradient too large for Newton-Raphson -- use scaled steepest descent instead.
     Minimum is close to point  3 DX= -5.32D-03 DF= -5.47D-08 DXR=  1.08D-02 DFR=  1.16D-04 which will be used.
 Gradient too large for Newton-Raphson -- use scaled steepest descent instead.
     Minimum is close to point  3 DX=  1.41D-01 DF= -1.72D-06 DXR=  6.58D-02 DFR=  4.36D-03 which will be used.
 Gradient too large for Newton-Raphson -- use scaled steepest descent instead.
     Accept linear search using points  1 and  2.
 Gradient too large for Newton-Raphson -- use scaled steepest descent instead.
     Accept linear search using points  2 and  3.
 Gradient too large for Newton-Raphson -- use scaled steepest descent instead.
     Accept linear search using points  1 and  2.
 LinEq1:  Iter=  0 NonCon=     1 RMS=4.95D-05 Max=1.17D-02 NDo=     1
 AX will form     1 AO Fock derivatives at one time.
 LinEq1:  Iter=  1 NonCon=     1 RMS=4.05D-05 Max=3.62D-03 NDo=     1
 LinEq1:  Iter=  2 NonCon=     1 RMS=1.08D-05 Max=1.91D-03 NDo=     1
 LinEq1:  Iter=  3 NonCon=     1 RMS=6.90D-06 Max=5.52D-04 NDo=     1
 LinEq1:  Iter=  4 NonCon=     1 RMS=5.77D-06 Max=5.80D-04 NDo=     1
 LinEq1:  Iter=  5 NonCon=     1 RMS=2.43D-06 Max=1.63D-04 NDo=     1
 LinEq1:  Iter=  6 NonCon=     1 RMS=1.66D-06 Max=1.98D-04 NDo=     1
 LinEq1:  Iter=  7 NonCon=     1 RMS=9.21D-07 Max=1.04D-04 NDo=     1
 LinEq1:  Iter=  8 NonCon=     1 RMS=6.68D-07 Max=6.50D-05 NDo=     1
 LinEq1:  Iter=  9 NonCon=     1 RMS=4.17D-07 Max=2.56D-05 NDo=     1
 LinEq1:  Iter= 10 NonCon=     1 RMS=2.44D-07 Max=2.83D-05 NDo=     1
 LinEq1:  Iter= 11 NonCon=     1 RMS=1.57D-07 Max=2.47D-05 NDo=     1
 LinEq1:  Iter= 12 NonCon=     1 RMS=1.10D-07 Max=1.33D-05 NDo=     1
 LinEq1:  Iter= 13 NonCon=     1 RMS=6.20D-08 Max=4.37D-06 NDo=     1
 LinEq1:  Iter= 14 NonCon=     1 RMS=3.46D-08 Max=2.52D-06 NDo=     1
 LinEq1:  Iter= 15 NonCon=     1 RMS=1.81D-08 Max=1.81D-06 NDo=     1
 LinEq1:  Iter= 16 NonCon=     1 RMS=1.23D-08 Max=1.53D-06 NDo=     1
 LinEq1:  Iter= 17 NonCon=     1 RMS=9.75D-09 Max=1.41D-06 NDo=     1
 LinEq1:  Iter= 18 NonCon=     1 RMS=5.75D-09 Max=4.82D-07 NDo=     1
 LinEq1:  Iter= 19 NonCon=     0 RMS=3.22D-09 Max=1.58D-07 NDo=     1
 Linear equations converged to 4.637D-08 4.637D-07 after    19 iterations.
 Incorrect curvature in search direction -- initial direction reversed.
 Restarting incremental Fock formation.
     Minimum is close to point  4 DX=  1.52D-01 DF= -5.97D-05 DXR=  7.07D-02 DFR=  1.05D-02 which will be used.
 Gradient too large for Newton-Raphson -- use scaled steepest descent instead.
 Gradient too large for Newton-Raphson -- use scaled steepest descent instead.
     Accept linear search using points  1 and  2.
 Gradient too large for Newton-Raphson -- use scaled steepest descent instead.
 Gradient too large for Newton-Raphson -- use scaled steepest descent instead.
     Minimum is close to point  3 DX= -3.36D-03 DF= -4.38D-08 DXR=  6.77D-03 DFR=  4.59D-05 which will be used.
 Gradient too large for Newton-Raphson -- use scaled steepest descent instead.
     Accept linear search using points  2 and  3.
     Minimum is close to point  3 DX= -1.30D-01 DF= -3.45D-06 DXR=  6.96D-02 DFR=  4.88D-03 which will be used.
 Gradient too large for Newton-Raphson -- use scaled steepest descent instead.
     Minimum is close to point  3 DX= -1.23D-02 DF= -3.96D-07 DXR=  2.52D-02 DFR=  6.37D-04 which will be used.
 Gradient too large for Newton-Raphson -- use scaled steepest descent instead.
     Accept linear search using points  2 and  3.
 Gradient too large for Newton-Raphson -- use scaled steepest descent instead.
     Accept linear search using points  1 and  2.
 Restarting incremental Fock formation.
 LinEq1:  Iter=  0 NonCon=     1 RMS=4.77D-05 Max=6.53D-03 NDo=     1
 LinEq1:  Iter=  1 NonCon=     1 RMS=3.80D-05 Max=3.49D-03 NDo=     1
 LinEq1:  Iter=  2 NonCon=     1 RMS=8.72D-06 Max=9.27D-04 NDo=     1
 LinEq1:  Iter=  3 NonCon=     1 RMS=4.70D-06 Max=3.09D-04 NDo=     1
 LinEq1:  Iter=  4 NonCon=     1 RMS=4.22D-06 Max=4.15D-04 NDo=     1
 LinEq1:  Iter=  5 NonCon=     1 RMS=1.21D-06 Max=7.37D-05 NDo=     1
 LinEq1:  Iter=  6 NonCon=     1 RMS=8.92D-07 Max=9.21D-05 NDo=     1
 LinEq1:  Iter=  7 NonCon=     1 RMS=5.86D-07 Max=6.38D-05 NDo=     1
 LinEq1:  Iter=  8 NonCon=     1 RMS=4.54D-07 Max=4.43D-05 NDo=     1
 LinEq1:  Iter=  9 NonCon=     1 RMS=2.83D-07 Max=1.84D-05 NDo=     1
 LinEq1:  Iter= 10 NonCon=     1 RMS=1.45D-07 Max=7.29D-06 NDo=     1
 LinEq1:  Iter= 11 NonCon=     1 RMS=9.03D-08 Max=6.61D-06 NDo=     1
 LinEq1:  Iter= 12 NonCon=     1 RMS=5.11D-08 Max=4.08D-06 NDo=     1
 LinEq1:  Iter= 13 NonCon=     1 RMS=3.31D-08 Max=2.32D-06 NDo=     1
 LinEq1:  Iter= 14 NonCon=     1 RMS=2.10D-08 Max=8.99D-07 NDo=     1
 LinEq1:  Iter= 15 NonCon=     1 RMS=1.12D-08 Max=8.32D-07 NDo=     1
 LinEq1:  Iter= 16 NonCon=     1 RMS=8.85D-09 Max=7.98D-07 NDo=     1
 LinEq1:  Iter= 17 NonCon=     1 RMS=6.40D-09 Max=6.05D-07 NDo=     1
[...]
 0021305,0.00010342,-0.00000974,0.00001860,0.00002426,-0.00049880,0.000
 31758,-0.00001066,0.00013261,-0.00006288,-0.00002183,0.00003445,0.0001
 0519,0.00018653,-0.00033069,0.00014361,-0.00018883,-0.00002364,0.00011
 556,0.00007019,0.00010887,-0.00009765,-0.00006653,-0.00015278,0.000030
 69,0.00097136,0.00312231,0.00083441,0.52620913,0.,0.,0.,0.,0.,0.,-0.00
 042770,-0.00077059,-0.00029806,-0.00010357,0.00008141,0.00011147,0.,0.
 ,0.,-0.00059523,0.00013320,0.00014659,0.00048206,0.00013605,-0.0001779
 8,0.,0.,0.,0.00003306,0.00023210,0.00017719,-0.00027582,0.00017951,-0.
 00011635,-0.00124146,-0.00146815,0.00343188,0.00113806,-0.00151664,-0.
 00275201,-0.00081439,0.00052069,0.00096212,-0.00241826,-0.00123977,-0.
 00117560,-0.00001818,-0.00024947,0.00079492,-0.00014811,-0.00017686,-0
 .00017476,0.00029449,-0.00041368,-0.00319352,-0.00189001,0.00031963,0.
 00037074,0.00030647,-0.00030321,-0.00042443,0.00079189,-0.00003115,-0.
 00001324,0.00010277,0.00033360,0.00024781,0.00069136,-0.00074324,0.000
 33921,0.00169031,0.00060786,0.00007131,0.00040583,-0.00149382,0.000547
 77,0.00008982,0.00012243,0.00005320,0.01922312,0.01818889,0.01040737,-
 0.01536161,-0.01583840,-0.01960418,-0.00184047,-0.00590513,-0.00171199
 ,0.02608719,0.01797221,-0.04349658,0.00020208,0.00213718,0.00055243,0.
 00057431,-0.00010528,0.00016560,-0.00056941,-0.00005971,-0.00010805,-0
 .00013363,0.00009228,-0.00021976,0.00009906,-0.00007237,0.00037133,0.0
 0113253,-0.00032859,0.00074043,0.00549292,0.00616583,0.00123444,0.0001
 1117,0.00046061,-0.00028534,-0.00006214,-0.00019939,-0.00003208,-0.000
 01804,0.00001748,-0.00002330,0.00010147,-0.00017904,0.00012373,-0.0000
 1898,0.00005145,-0.00004570,0.00000783,-0.00004920,0.00002691,-0.00003
 486,-0.00006251,0.00000280,0.00002527,0.00005907,-0.00005798,-0.000237
 73,-0.00017241,0.00027967,0.00005499,0.00006507,-0.00005603,0.00002627
 ,-0.00002481,-0.00000933,-0.00000619,0.00005462,-0.00004889,0.00001917
 ,0.00006409,-0.00003676,-0.00007607,-0.00002668,0.00004240,0.00002147,
 -0.00007540,0.00007754,-0.00001594,0.00004365,0.00008562,0.00013509,-0
 .00032671,0.00003909,0.00005248,-0.00008982,0.00005854,0.00004258,0.00
 014944,-0.00003719,0.00002178,0.00012436,-0.00010191,0.00008204,-0.000
 05666,0.00019252,0.00007941,0.00000241,0.00001470,-0.00005792,-0.00049
 208,0.00036481,-0.00001068,0.00015057,-0.00007232,-0.00005516,-0.00001
 631,0.00010165,0.00017454,-0.00039539,0.00008024,-0.00020736,-0.000027
 42,0.00009089,0.00008996,0.00012059,-0.00009840,-0.00006947,-0.0001323
 3,0.00004531,0.00166305,0.00382781,0.00150517,0.17915196,0.26693002,0.
 ,0.,0.,0.,0.,0.,-0.00069339,-0.00060229,-0.00020945,0.00055399,0.00095
 521,0.00042837,0.,0.,0.,0.00082257,-0.00026937,-0.00011112,-0.00089790
 ,-0.00029130,0.00024168,0.,0.,0.,-0.00005196,0.00015159,-0.00075666,0.
 00100551,-0.00048542,0.00037624,0.00097589,0.00220788,0.00353077,-0.00
 214084,-0.00113351,-0.00035660,-0.00003312,0.00008282,-0.00004927,0.00
 386461,-0.00270554,0.00065218,-0.00107016,0.00018393,-0.00265736,0.000
 08824,-0.00008475,0.00044762,-0.00149797,-0.00165212,0.00288265,0.0022
 0859,-0.00045716,-0.00028740,-0.00054807,0.00009129,0.00003612,0.00168
 366,-0.00195721,-0.00195592,0.00006862,-0.00002382,-0.00004525,-0.0019
 1270,0.00076790,0.00256929,-0.00012820,0.00083110,0.00161596,-0.000487
 85,0.00202972,-0.00105383,0.00006795,0.00006461,0.00001082,-0.00416856
 ,0.00977891,-0.02690430,0.01285773,0.00486149,0.03370780,-0.00151463,0
 .00047379,0.00548755,-0.04193114,-0.04572507,-0.02733356,0.00115334,-0
 .00308971,0.00215575,-0.00028960,0.00083781,-0.00014846,-0.00034906,-0
 .00611110,-0.00328296,0.00115421,0.00034320,-0.00073137,-0.00580441,0.
 00071702,-0.00224986,-0.00073899,0.00151842,-0.00243751,-0.00694429,-0
 .00739880,-0.00303315,-0.00018557,-0.00034119,-0.00016181,-0.00007636,
 0.00014045,0.00038022,0.00001423,-0.00001230,-0.00008333,0.00004757,-0
 .00006665,0.00010872,0.00000532,0.00002074,-0.00003520,0.00000499,-0.0
 0005256,-0.00002337,-0.00001482,0.00001179,0.00005183,-0.00000978,0.00
 001639,0.00001012,0.00005631,0.00003383,-0.00007513,0.00000096,-0.0000
 2280,0.00003415,-0.00004860,-0.00001406,-0.00000132,0.00002616,-0.0000
 1073,0.00001728,-0.00000887,-0.00006614,-0.00000082,0.00007337,0.00006
 496,0.00001446,-0.00005757,0.00013258,-0.00006789,0.00029181,0.0001270
 3,0.00001895,-0.00015252,0.00012248,-0.00005196,-0.00002267,0.00023824
 ,-0.00004673,-0.00004187,-0.00010994,0.00000238,-0.00005258,0.00018616
 ,-0.00003417,0.00008506,0.00025728,0.00025802,0.00007027,-0.00022548,-
 0.00000335,0.00006855,0.00010438,-0.00020198,0.00001750,-0.00001131,0.
 00006522,0.00014444,0.00031405,0.00003424,0.00001001,0.00032200,0.0003
 7969,0.00009825,0.00002874,0.00008688,-0.00005298,-0.00003291,-0.00002
 114,-0.00006447,-0.00012518,-0.00006609,0.00009997,-0.00089417,-0.0033
 0765,0.58989465,0.34179064,1.07732025,0.,0.,0.,0.,0.,0.,0.00024085,0.0
 0032333,0.00012914,-0.00007310,-0.00021020,-0.00011977,0.,0.,0.,-0.000
 00593,0.00007129,-0.00004953,0.00009041,0.00001885,-0.00000291,0.,0.,0
 .,0.00012836,-0.00014187,0.00005018,-0.00016093,0.00007802,-0.00008646
 ,0.00023394,-0.00013468,-0.00174600,0.00010842,0.00074420,0.00085989,0
 .00032188,-0.00016585,-0.00024261,0.00001997,0.00062535,-0.00002739,0.
 00004332,0.00010967,0.00020984,0.00004227,0.00003102,-0.00016359,0.000
 26205,0.00042458,0.00007545,-0.00024922,0.00026681,-0.00005314,0.00015
 791,-0.00008650,0.00018703,-0.00060990,0.00046795,0.00041839,-0.000048
 06,-0.00006100,-0.00009620,0.00032899,-0.00020126,0.00012340,-0.000099
 08,-0.00040996,0.00001728,-0.00001124,-0.00016527,0.00010947,-0.000040
 83,-0.00006241,0.00000001,-0.00368299,-0.00506981,0.00204700,-0.000590
 43,0.00176499,-0.00305485,0.00061920,-0.00032619,-0.00037331,0.0127029
 4,-0.00351370,0.01564012,-0.00285274,0.00059010,-0.00242050,-0.0000368
 0,-0.00054188,0.00032521,-0.00090717,0.00027310,0.00068796,-0.00027171
 ,-0.00030872,0.00051735,-0.00082473,-0.00167371,0.00289130,-0.00038743
 ,-0.00094218,0.00133560,0.00066581,0.00023269,0.00023867,0.00005392,-0
 .00005023,0.00009120,0.00001952,0.00002567,-0.00004699,-0.00000168,-0.
 00000321,0.00001694,-0.00004221,0.00006063,-0.00005083,0.00000681,-0.0
 0002399,0.00002108,-0.00000438,0.00001858,-0.00000424,0.00001695,0.000
 01688,-0.00000814,-0.00000208,-0.00001584,0.00001271,0.00004501,0.0000
 2912,-0.00004462,-0.00001664,-0.00000772,0.00000463,0.00000432,0.00001
 578,0.00000113,0.00000005,-0.00001558,0.00000896,-0.00000272,-0.000005
 11,0.00000781,0.00000855,-0.00000427,-0.00001299,0.00000384,-0.0000021
 2,-0.00000490,-0.00009466,-0.00006167,-0.00002294,0.00001235,0.0000723
 0,-0.00000139,-0.00000848,-0.00000833,-0.00000735,0.00000439,-0.000013
 86,0.00000735,0.00000193,-0.00007444,0.00004289,-0.00005523,-0.0000284
 9,-0.00008168,-0.00004021,0.00002660,-0.00000611,-0.00004718,0.0001320
 9,-0.00005923,-0.00000306,-0.00002384,0.00001233,-0.00001263,-0.000048
 16,-0.00003200,-0.00005473,0.00004376,-0.00008793,0.00004473,0.0000070
 8,-0.00005628,-0.00000719,-0.00002977,0.00003249,0.00002248,0.00006268
 ,0.,0.00001628,-0.00050075,0.00025305,-0.17887995,-0.03705549,-0.24327
 723,0.17839205,0.,0.,0.,0.,0.,0.,0.00012324,0.00019525,0.00007205,0.00
 001936,-0.00003217,-0.00003620,0.,0.,0.,0.00012828,-0.00005088,-0.0000
 1694,-0.00008761,-0.00001388,0.00003798,0.,0.,0.,-0.00006296,-0.000043
 52,-0.00001983,0.00002690,-0.00002584,0.00001911,0.00038142,0.00030538
 ,-0.00093244,-0.00030747,0.00044530,0.00077429,0.00015576,-0.00015670,
 -0.00033493,0.00042122,0.00047139,0.00016167,0.00007819,0.00004202,-0.
 00002384,0.00002890,0.00004866,0.00004615,0.00002954,0.00015639,0.0007
 5567,0.00041786,-0.00011094,-0.00006410,-0.00006776,0.00011514,0.00009
 689,-0.00022693,0.00001277,0.00000473,-0.00002519,-0.00008843,-0.00006
 060,-0.00001630,0.00027103,-0.00022604,-0.00035215,-0.00043311,-0.0002
 5817,-0.00010322,0.00030106,-0.00005604,-0.00003047,-0.00003633,-0.000
 01471,-0.00492415,-0.00465675,-0.00064273,0.00329224,0.00253885,0.0000
 0770,0.00053751,-0.00084242,-0.00232788,-0.00370028,-0.00168927,0.0310
 8773,-0.00104525,0.00029420,0.00006529,-0.00011830,-0.00023014,0.00031
 451,-0.00083372,-0.00270872,0.00233574,-0.00027777,-0.00016794,0.00035
 434,-0.00072406,-0.00103784,0.00041138,-0.00017536,-0.00000978,0.00005
 176,-0.00049113,-0.00019343,-0.00013231,-0.00003864,-0.00011467,0.0001
 2472,0.00004713,0.00006163,-0.00006502,0.00000737,-0.00000435,0.000027
 82,-0.00005278,0.00008799,-0.00007711,0.00000390,-0.00002066,0.0000284
 1,-0.00000285,0.00003073,-0.00000672,0.00001347,0.00002194,-0.00001078
 ,-0.00001106,-0.00002772,0.00002191,0.00007563,0.00007263,-0.00009529,
 -0.00001748,-0.00002378,0.00001836,-0.00000412,0.00000724,0.00000275,-
 0.00000012,-0.00001464,0.00001296,-0.00000640,-0.00001474,0.00001508,0
 .00001747,0.00000240,-0.00001672,-0.00000049,0.00001146,-0.00001998,-0
 .00000466,-0.00001325,-0.00003118,-0.00003058,0.00008142,0.00000953,-0
 .00001391,-0.00000218,-0.00001083,-0.00001318,-0.00004035,0.00001334,0
 .00000084,-0.00005242,0.00004193,-0.00001340,-0.00003669,-0.00012470,-
 0.00004526,0.00004963,-0.00000909,0.00002058,0.00014894,-0.00006168,0.
 00000196,-0.00006453,-0.00000031,-0.00000232,-0.00004257,-0.00002030,-
 0.00006441,0.00005118,-0.00013511,0.00005192,0.00000429,-0.00003759,-0
 .00002278,-0.00003270,0.00004669,0.00005150,0.00007735,-0.00000850,-0.
 00099408,-0.00168745,0.00052616,-0.02909270,-0.08534142,-0.07898494,0.
 06309619,0.07507719,0.,0.,0.,0.,0.,0.,0.00040209,0.00047520,0.00019896
 ,-0.00033178,-0.00058457,-0.00028290,0.,0.,0.,-0.00051869,0.00028330,0
 .00001344,0.00059534,0.00019272,-0.00015657,0.,0.,0.,0.00005100,-0.000
 08012,0.00053790,-0.00058266,0.00029066,-0.00020657,-0.00046560,-0.001
 27350,-0.00208151,0.00105357,0.00086162,0.00060911,0.00001666,-0.00018
 258,-0.00027886,-0.00243692,0.00158458,-0.00023474,0.00076253,-0.00020
 891,0.00158240,-0.00007053,0.00005609,-0.00021570,0.00090031,0.0011598
 9,-0.00237113,-0.00164758,0.00037658,0.00022426,0.00036867,-0.00012871
 ,-0.00000394,-0.00101423,0.00116028,0.00105905,-0.00004096,0.00002483,
 -0.00000921,0.00101371,-0.00047123,-0.00194706,0.00005628,-0.00027328,
 -0.00060689,0.00032184,-0.00151931,0.00072551,-0.00004452,-0.00005189,
 -0.00002371,0.00422614,-0.00254834,0.01091706,-0.00866312,-0.00642751,
 -0.01361034,0.00070134,-0.00079383,-0.00228940,0.01798710,0.03617367,-
 0.04446748,-0.00003546,0.00169261,-0.00004283,0.00009886,-0.00050056,0
 .00019487,0.00016425,0.00353002,0.00157550,-0.00060557,-0.00020740,0.0
 0039782,0.00350698,-0.00014822,0.00057201,0.00046533,-0.00061170,0.000
 94558,0.00302633,0.00317052,0.00184222,0.00010241,0.00019426,0.0001230
 7,0.00005066,-0.00008299,-0.00023883,-0.00000826,0.00000726,0.00005387
 ,-0.00003136,0.00004640,-0.00007017,-0.00000274,-0.00001396,0.00002251
 ,-0.00000341,0.00003484,0.00001429,0.00000981,-0.00000605,-0.00003299,
 0.00000537,-0.00001232,-0.00000483,-0.00002302,-0.00001797,0.00003344,
 -0.00000307,0.00001303,-0.00002110,0.00002955,0.00000930,0.00000234,-0
 .00001805,0.00000470,-0.00000741,0.00000564,0.00004206,0.00000265,-0.0
 0004661,-0.00004251,-0.00001163,0.00003885,-0.00008714,0.00004260,-0.0
 0018312,-0.00008147,-0.00002490,0.00009834,-0.00006413,0.00004142,0.00
 001558,-0.00015884,0.00002725,0.00002509,0.00006622,0.00000211,0.00004
 074,-0.00011555,0.00002323,-0.00006416,-0.00016515,-0.00017741,-0.0000
 4465,0.00014337,0.00000366,-0.00002508,-0.00004717,0.00009704,-0.00001
 128,0.00000208,-0.00003076,-0.00009107,-0.00020542,-0.00004377,-0.0000
 1563,-0.00016074,-0.00023464,-0.00005069,-0.00001547,-0.00005793,0.000
 02714,0.00001495,0.00001397,0.00004241,0.00008109,0.00004123,-0.000060
 12,0.00041484,0.00169440,-0.27079895,-0.10946713,-0.68153927,0.2917169
 0,0.08900232,0.78461973,0.,0.,0.,0.,0.,0.,0.00032072,0.00070710,0.0002
 9093,0.00005093,-0.00013847,-0.00015542,0.,0.,0.,0.00022839,0.00003079
 ,-0.00009595,-0.00005728,-0.00002655,0.00004780,0.,0.,0.,0.00026552,-0
 .00038513,-0.00026873,-0.00025175,0.00009106,-0.00015209,0.00138382,0.
 00020284,-0.00110933,-0.00217004,0.00143017,0.00246571,-0.00053471,-0.
 00093055,-0.00280256,0.00096281,0.00121529,0.00002127,-0.00028247,0.00
 040996,0.00013047,0.00013735,0.00006449,-0.00033733,0.00046011,0.00032
 462,0.00091160,0.00034265,0.00025523,-0.00020147,0.00008621,-0.0000664
 8,0.00025265,-0.00036221,-0.00013832,-0.00019868,-0.00004425,-0.000142
 55,-0.00020884,0.00050766,0.00027753,0.00070445,-0.00079894,-0.0012957
 6,-0.00068769,-0.00027341,0.00032669,-0.00004626,-0.00008677,-0.000123
 53,-0.00000403,-0.01162028,-0.00724214,-0.00134833,0.00391174,-0.00060
 482,0.01171144,0.00000621,0.00162950,0.00031460,-0.02894801,-0.0437649
 8,0.00745336,0.00033748,-0.00033675,-0.00034950,-0.00022096,-0.0004135
 4,0.00014837,-0.00006289,0.00074161,0.00019098,-0.00003045,-0.00001880
 ,0.00013082,0.00084454,0.00025767,0.00006540,-0.00042960,-0.00010102,-
 0.00007589,-0.00273703,-0.00308753,-0.00105555,0.00002644,-0.00019229,
 0.00017794,0.00003866,0.00008211,-0.00003629,0.00000642,-0.00000977,0.
 00002235,-0.00007296,0.00011177,-0.00008555,0.00001261,-0.00004468,0.0
 0003266,-0.00000712,0.00003334,-0.00001196,0.00002765,0.00003496,-0.00
 000851,-0.00000948,-0.00003204,0.00002913,0.00012355,0.00007428,-0.000
 11769,-0.00003401,-0.00002844,0.00002002,-0.00000074,0.00002382,0.0000
 0213,-0.00000039,-0.00003637,0.00002448,-0.00000801,-0.00002431,0.0000
 1795,0.00003352,0.00000466,-0.00002384,-0.00000527,0.00002358,-0.00002
 714,-0.00012462,-0.00008720,-0.00003751,-0.00001662,0.00018723,-0.0000
 3570,-0.00002741,0.00002673,-0.00002571,-0.00000629,-0.00005814,0.0000
 1547,-0.00001093,-0.00014735,0.00008573,-0.00013121,-0.00001836,-0.000
 15141,-0.00006356,0.00001949,-0.00001134,-0.00000404,0.00029967,-0.000
 19218,0.00000711,-0.00008077,0.00003776,0.00000645,-0.00003491,-0.0000
 6964,-0.00011719,0.00020184,-0.00009766,0.00011023,0.00001242,-0.00006
 843,-0.00004181,-0.00006267,0.00005630,0.00004162,0.00009294,-0.000015
 41,-0.00055790,-0.00177656,-0.00049468,-0.34039586,-0.17550360,-0.3029
 0552,-0.00486747,-0.02531650,-0.03989941,0.38374396,0.,0.,0.,0.,0.,0.,
 0.00015109,0.00062995,0.00034377,0.00002691,-0.00009858,-0.00008193,0.
 ,0.,0.,0.00021038,-0.00003145,-0.00004797,-0.00018037,-0.00004004,0.00
 006946,0.,0.,0.,-0.00001002,-0.00003935,-0.00000249,0.00031232,-0.0001
 0278,0.00014487,-0.00011281,0.00128381,-0.00165184,-0.00015620,0.00052
 433,0.00104249,0.00030590,-0.00009982,-0.00061461,0.00141616,-0.000028
 78,0.00062800,0.00001238,-0.00018927,-0.00076465,0.00000610,0.00013067
 ,0.00032010,0.00001313,0.00004042,0.00121785,0.00073802,-0.00026731,-0
 .00003569,-0.00012276,0.00020072,0.00015770,-0.00034883,0.00036038,0.0
 0022552,-0.00006787,-0.00016926,-0.00007545,-0.00067164,0.00012326,0.0
 0002984,-0.00009289,0.00005790,0.00045556,-0.00018639,0.00053010,-0.00
 015660,-0.00003419,-0.00003049,-0.00004457,-0.00466599,-0.00602236,-0.
 00598850,0.00135256,0.00219794,0.01249534,0.00029900,0.00173791,0.0008
 4945,-0.04279955,-0.03544226,0.00418366,-0.00024162,-0.00095067,-0.000
 47367,-0.00012942,-0.00014888,0.00000129,0.00008305,0.00012183,-0.0001
 7568,-0.00003048,-0.00005329,0.00015823,0.00028357,0.00009481,-0.00009
 575,-0.00051998,0.00014909,-0.00027180,-0.00259460,-0.00292751,-0.0010
 4612,-0.00006408,-0.00020237,0.00014274,0.00002870,0.00008382,0.000007
 90,0.00000662,-0.00000618,0.00001171,-0.00003986,0.00007797,-0.0000505
 3,0.00000819,-0.00001828,0.00001825,-0.00000292,0.00002204,-0.00001091
 ,0.00001386,0.00002641,-0.00000223,-0.00001091,-0.00002708,0.00002530,
 0.00010617,0.00007746,-0.00013588,-0.00002430,-0.00002857,0.00002545,-
 0.00001263,0.00000990,0.00000652,0.00000136,-0.00002204,0.00002273,-0.
 00000846,-0.00002615,0.00001734,0.00002950,0.00000807,-0.00002153,-0.0
 0000508,0.00002563,-0.00003347,0.00001982,-0.00000887,-0.00005255,-0.0
 0005580,0.00013085,-0.00000195,-0.00002090,0.00002245,-0.00002555,-0.0
 0001845,-0.00006347,0.00001807,-0.00000300,-0.00004508,0.00003142,-0.0
 0003140,0.00001481,-0.00009069,-0.00003458,0.00000320,-0.00000326,0.00
 003292,0.00021149,-0.00017165,0.00000138,-0.00006095,0.00003830,0.0000
 1984,-0.00001045,-0.00005598,-0.00007758,0.00017623,-0.00003862,0.0000
 9155,0.00001256,-0.00004921,-0.00003903,-0.00005740,0.00004257,0.00002
 981,0.00006134,-0.00001685,-0.00047010,-0.00132247,-0.00055170,-0.1879
 7645,-0.20178649,-0.21604354,-0.01743287,0.01912330,-0.01493188,0.2530
 7097,0.22262117,0.,0.,0.,0.,0.,0.,0.00084039,0.00048233,0.00010406,-0.
 00036106,-0.00062600,-0.00029085,0.,0.,0.,-0.00017728,0.00017619,-0.00
 005052,0.00026761,0.00007707,-0.00005774,0.,0.,0.,-0.00003070,-0.00008
 546,0.00042265,-0.00043129,0.00017268,-0.00015145,0.00083383,-0.001512
 56,-0.00837220,0.00160930,0.00167834,0.00063732,-0.00127006,-0.0004376
 7,-0.00141682,-0.00147911,0.00214721,0.00020892,0.00084709,0.00004596,
 0.00115899,0.00001145,0.00012864,-0.00015023,0.00031294,0.00154484,-0.
 00051654,-0.00057227,0.00021799,0.00002002,0.00018988,-0.00003616,0.00
 019504,-0.00223081,0.00194135,0.00136798,-0.00007409,-0.00007947,-0.00
 017452,0.00069337,-0.00042531,-0.00174351,-0.00019105,-0.00038307,-0.0
 0039206,0.00020670,-0.00054461,0.00029760,-0.00006515,-0.00009030,-0.0
 0002904,-0.00597555,-0.01231810,0.00563032,0.00020329,0.00111549,-0.00
 050102,0.00074642,0.00090273,-0.00123107,0.01187177,0.00882158,0.01951
 997,-0.00022046,0.00070651,-0.00090157,-0.00007751,-0.00037629,0.00012
 053,-0.00002522,0.00188712,0.00082718,-0.00028413,-0.00015025,0.000289
 31,0.00187915,-0.00020293,0.00062797,-0.00005968,-0.00048470,0.0005960
 9,-0.00007774,-0.00024188,0.00019755,0.00005174,-0.00001386,0.00016920
 ,0.00004774,0.00000198,-0.00013627,-0.00000131,-0.00000075,0.00003935,
 -0.00005105,0.00008250,-0.00007590,0.00000523,-0.00002823,0.00002670,-
 0.00000470,0.00003444,0.00000146,0.00001838,0.00001540,-0.00002076,-0.
 00000246,-0.00002406,0.00001270,0.00006031,0.00003132,-0.00005770,-0.0
 0002134,-0.00000963,0.00000129,0.00001279,0.00001657,0.00000456,-0.000
 01075,-0.00001656,0.00001146,-0.00000136,0.00000884,0.00001198,-0.0000
 0719,-0.00002063,-0.00002085,0.00001912,-0.00003604,0.00000516,-0.0001
 4137,-0.00008453,-0.00004308,0.00002240,0.00007755,0.00000250,-0.00000
 808,-0.00007539,-0.00000232,0.00000607,-0.00000063,0.00001236,0.000016
 05,-0.00013664,0.00004930,-0.00008857,-0.00006753,-0.00017179,-0.00005
 311,0.00008091,0.00000019,-0.00000430,0.00013026,-0.00007188,-0.000004
 51,-0.00004157,0.00001156,-0.00004461,-0.00012974,-0.00006958,-0.00006
 977,0.00003727,-0.00015574,0.00003480,-0.00000178,-0.00006827,-0.00001
 113,-0.00003010,0.00003604,0.00004287,0.00008897,0.00001351,-0.0003543
 2,-0.00069832,0.00061902,-0.26893839,-0.18092654,-0.37511884,-0.065488
 65,-0.04183212,-0.05607186,0.32832992,0.22052590,0.41550755\\0.,0.,0.,
 0.,0.,0.,0.,0.,0.,0.,0.,0.,0.,0.,0.,0.,0.,0.,0.,0.,0.,0.,0.,0.,0.,0.,0
 .00000001,0.,0.,0.,-0.00000005,0.00000002,0.00000001,0.,0.,0.,0.,0.,0.
 ,0.,0.00000003,0.00000007,0.,0.,0.00000001,0.,0.,0.,0.,0.,0.00000003,0
 .,0.,0.,0.,0.,0.,0.,0.00000002,0.,0.,0.,0.,0.00000001,0.,-0.00000002,0
 .,0.,0.,0.,0.,0.00000002,0.,0.,0.,0.00000003,0.00000003,-0.00000016,0.
 ,0.,-0.00000001,0.,0.,0.,-0.00000002,-0.00000007,0.00000006,0.,0.,0.,0
 .,0.,0.,0.,0.,0.,0.,0.,0.,0.,0.,0.,0.,0.,0.,0.,0.,0.,0.,0.,0.,0.,0.,0.
 ,0.,0.,0.,0.,0.,0.,0.,0.,0.,0.,0.,0.,0.,0.,0.,0.,0.,0.,0.,0.,0.,0.,0.,
 0.,0.,0.,0.,0.,0.,0.,0.,0.,0.,0.,0.,0.,0.,0.,0.,0.,0.,0.,0.,0.,0.,0.,0
 .,0.,0.,0.,0.,0.,0.,0.,0.,0.,0.,0.,0.,0.,0.,0.,-0.00000002,0.,0.,0.,0.
 ,0.,0.,0.00000001,0.,0.,0.,0.,0.,0.,0.,0.00000001,0.,0.,0.,0.,0.,0.,0.
 00000002,0.00000002,0.,-0.00000001,0.,0.,0.,0.,0.\\\@


 IT IS BETTER TO THINK YOU ARE HALF DRY THAN TO KNOW YOU
 ARE ALL WET.  -- SNOOPY
 Job cpu time:       4 days 14 hours 41 minutes 47.5 seconds.
 Elapsed time:       0 days  1 hours 46 minutes  8.0 seconds.
 File lengths (MBytes):  RWF=   8645 Int=      0 D2E=      0 Chk=     66 Scr=      1
 Normal termination of Gaussian 16 at Thu Jan 30 01:47:07 2020.
