 Entering Gaussian System, Link 0=g16
 Input=IRC_3.com
 Output=IRC_3.log
 Initial command:
 /opt/ohpc/pub/apps/gaussian/avx2/g16/l1.exe "/scratch/g16-tmp/Gau-2430008.inp" -scrdir="/scratch/g16-tmp/"
 Entering Link 1 = /opt/ohpc/pub/apps/gaussian/avx2/g16/l1.exe PID=   2430009.
  
 Copyright (c) 1988-2017, Gaussian, Inc.  All Rights Reserved.
  
 This is part of the Gaussian(R) 16 program.  It is based on
 the Gaussian(R) 09 system (copyright 2009, Gaussian, Inc.),
 the Gaussian(R) 03 system (copyright 2003, Gaussian, Inc.),
 the Gaussian(R) 98 system (copyright 1998, Gaussian, Inc.),
 the Gaussian(R) 94 system (copyright 1995, Gaussian, Inc.),
 the Gaussian 92(TM) system (copyright 1992, Gaussian, Inc.),
 the Gaussian 90(TM) system (copyright 1990, Gaussian, Inc.),
 the Gaussian 88(TM) system (copyright 1988, Gaussian, Inc.),
 the Gaussian 86(TM) system (copyright 1986, Carnegie Mellon
 University), and the Gaussian 82(TM) system (copyright 1983,
 Carnegie Mellon University). Gaussian is a federally registered
 trademark of Gaussian, Inc.
  
 This software contains proprietary and confidential information,
 including trade secrets, belonging to Gaussian, Inc.
  
 This software is provided under written license and may be
 used, copied, transmitted, or stored only in accord with that
 written license.
  
 The following legend is applicable only to US Government
 contracts under FAR:
  
                    RESTRICTED RIGHTS LEGEND
  
 Use, reproduction and disclosure by the US Government is
 subject to restrictions as set forth in subparagraphs (a)
 and (c) of the Commercial Computer Software - Restricted
 Rights clause in FAR 52.227-19.
  
 Gaussian, Inc.
 340 Quinnipiac St., Bldg. 40, Wallingford CT 06492
  
  
 ---------------------------------------------------------------
 Warning -- This program may not be used in any manner that
 competes with the business of Gaussian, Inc. or will provide
 assistance to any competitor of Gaussian, Inc.  The licensee
 of this program is prohibited from giving any competitor of
 Gaussian, Inc. access to this program.  By using this program,
 the user acknowledges that Gaussian, Inc. is engaged in the
 business of creating and licensing software in the field of
 computational chemistry and represents and warrants to the
 licensee that it is not a competitor of Gaussian, Inc. and that
 it will not use this program in any manner prohibited above.
 ---------------------------------------------------------------
  

 Cite this work as:
 Gaussian 16, Revision B.01,
 M. J. Frisch, G. W. Trucks, H. B. Schlegel, G. E. Scuseria, 
 M. A. Robb, J. R. Cheeseman, G. Scalmani, V. Barone, 
 G. A. Petersson, H. Nakatsuji, X. Li, M. Caricato, A. V. Marenich, 
 J. Bloino, B. G. Janesko, R. Gomperts, B. Mennucci, H. P. Hratchian, 
 J. V. Ortiz, A. F. Izmaylov, J. L. Sonnenberg, D. Williams-Young, 
 F. Ding, F. Lipparini, F. Egidi, J. Goings, B. Peng, A. Petrone, 
 T. Henderson, D. Ranasinghe, V. G. Zakrzewski, J. Gao, N. Rega, 
 G. Zheng, W. Liang, M. Hada, M. Ehara, K. Toyota, R. Fukuda, 
 J. Hasegawa, M. Ishida, T. Nakajima, Y. Honda, O. Kitao, H. Nakai, 
 T. Vreven, K. Throssell, J. A. Montgomery, Jr., J. E. Peralta, 
 F. Ogliaro, M. J. Bearpark, J. J. Heyd, E. N. Brothers, K. N. Kudin, 
 V. N. Staroverov, T. A. Keith, R. Kobayashi, J. Normand, 
 K. Raghavachari, A. P. Rendell, J. C. Burant, S. S. Iyengar, 
 J. Tomasi, M. Cossi, J. M. Millam, M. Klene, C. Adamo, R. Cammi, 
 J. W. Ochterski, R. L. Martin, K. Morokuma, O. Farkas, 
 J. B. Foresman, and D. J. Fox, Gaussian, Inc., Wallingford CT, 2016.
 
 ******************************************
 Gaussian 16:  ES64L-G16RevB.01 20-Dec-2017
                 6-Mar-2023 
 ******************************************
 %nprocshared=64
 Will use up to   64 processors via shared memory.
 %mem=64GB
 %chk=IRC_3.chk
 ----------------------------------------------------------------------
 # irc=(calcfc,maxpoints=120,recalc=3) ucam-b3lyp/gen nosymm scf=(qc,ma
 xcycle=1024,vshift=100) pseudo=read
 ----------------------------------------------------------------------
 1/10=4,18=10,26=3,38=1,42=120,44=3,71=3,172=1/1,23;
 2/12=2,15=1,17=6,18=5,29=1,40=1/2;
 3/5=7,11=2,16=1,17=8,25=1,30=1,71=2,74=-40,116=2,140=1/1,2,3;
 4//1;
 5/5=2,7=1024,8=3,10=100,38=5/8;
 8/6=4,10=90,11=11/1;
 11/6=1,8=1,9=11,15=111,16=1,31=1/1,2,10;
 10/6=1,13=1,31=1/2;
 6/7=2,8=2,9=2,10=2,28=1/1;
 7/10=1,18=20,25=1,30=1/1,2,3,16;
 1/10=4,18=10,26=3,42=120,44=3,71=3/23(2);
 2/15=1,29=1/2;
 99/5=20/99;
 2/15=1,29=1/2;
 3/5=7,6=1,11=2,16=1,17=8,25=1,30=1,71=2,74=-40,82=7,116=2,140=1/1,2,3;
 4/5=5,16=3,69=1/1;
 5/5=2,7=1024,8=3,10=100,38=5/8;
 8/6=4,10=90,11=11/1;
 11/6=1,8=1,9=11,15=111,16=1,31=1/1,2,10;
 10/6=1,13=1,31=1/2;
 7/10=1,18=20,25=1,30=1/1,2,3,16;
 1/18=10,26=3,42=120,44=3,71=3/23(-8);
 2/15=1,29=1/2;
 6/7=2,8=2,9=2,10=2,19=2,28=1/1;
 99/5=20,9=1/99;
 -----
 IRC_3
 -----
 Symbolic Z-matrix:
 Charge =  0 Multiplicity = 4
 Li                   -1   -0.65876  -5.04605  -3.46452 
 N                    -1   -0.32836  -3.61409  -2.2819 
 C                    0    -0.9929   -3.99281  -1.15083 
 Cl                   0    -1.72515  -5.56928  -1.12122 
 N                    -1    2.25851   2.61269  -2.48314 
 C                    0     3.16343   1.60537  -2.42079 
 Cl                   0     4.74214   1.73012  -3.12205 
 N                    -1   -3.37906   2.02857   1.06405 
 C                    0    -3.60669   1.94875  -0.26815 
 Cl                   0    -5.03075   2.58943  -1.01025 
 N                    0    -0.25919  -1.95365  -0.78563 
 C                    0    -0.95975  -2.98758  -0.22986 
 Cl                   0    -1.63387  -2.92651   1.33851 
 N                    0    -1.6478    0.97271   0.06626 
 C                    0    -2.56516   1.30731  -0.8878 
 Cl                   0    -2.33799   0.91777  -2.55554 
 N                    0     1.37139   0.86887  -1.34787 
 C                    0     2.63959   0.54167  -1.73085 
 Cl                   0     3.36691  -0.97542  -1.3499 
 C                    0     0.09039  -2.37365  -2.00398 
 H                    0     0.65764  -1.76216  -2.68992 
 C                    0    -2.20631   1.43413   1.21637 
 H                    0    -1.71671   1.3054    2.17203 
 C                    0     1.2062    2.12091  -1.83269 
 H                    0     0.276     2.65727  -1.70098 
 Co                   0     0.05565  -0.04882  -0.08373 
 C                    0     2.12423   0.46602   2.0166 
 C                    0     1.29659   1.6055    2.37894 
 O                    0     0.81888  -0.01299   1.71852 
 C                    0     2.83318  -0.29799   3.10241 
 H                    0     0.94718   2.27923   1.61395 
 H                    0     0.80542   1.61396   3.33957 
 H                    0     3.16557  -1.26869   2.72554 
 H                    0     2.16117  -0.46335   3.94794 
 H                    0     3.69983   0.2718    3.4456 
 H                    0     2.74648   0.61803   1.13107 
 N                    0     3.73868   5.61795  -0.273 
 C                    0     3.73577   6.41403   1.02633 
 C                    0     5.05041   7.04146   1.46615 
 H                    0     3.36017   5.73033   1.79274 
 H                    0     3.00113   7.20822   0.87962 
 H                    0     4.86897   7.48769   2.44704 
 H                    0     5.85723   6.32081   1.58637 
 H                    0     5.38536   7.84159   0.80319 
 C                    0     4.6068    6.30698  -1.29772 
 C                    0     4.61753   5.68291  -2.68374 
 H                    0     5.6165    6.32729  -0.89224 
 H                    0     4.24907   7.33905  -1.34217 
 H                    0     5.26882   6.29522  -3.31264 
 H                    0     5.01588   4.66772  -2.68639 
 H                    0     3.63283   5.6581   -3.1507 
 C                    0     2.30943   5.57491  -0.81307 
 C                    0     1.22735   5.29136   0.21799 
 H                    0     2.30429   4.80418  -1.58549 
 H                    0     2.1408    6.54799  -1.2819 
 H                    0     0.31467   5.03575  -0.32532 
 H                    0     1.47266   4.46186   0.8831 
 H                    0     1.00426   6.15566   0.84531 
 C                    0     4.173     4.17438  -0.05567 
 C                    0     5.56293   3.9512    0.5075 
 H                    0     4.05099   3.68735  -1.01949 
 H                    0     3.45573   3.75      0.64701 
 H                    0     5.75993   2.87939   0.42878 
 H                    0     6.3565    4.46434  -0.04148 
 H                    0     5.61194   4.20121   1.56772 
 Br                   0     2.86917   3.46228   3.20121 
 
 IRC-IRC-IRC-IRC-IRC-IRC-IRC-IRC-IRC-IRC-IRC-IRC-IRC-IRC-IRC-IRC-IRC-IRC
 ------------------------------------------------------------------------
 INPUT DATA FOR L123
 ------------------------------------------------------------------------
 GENERAL PARAMETERS:
 Follow reaction path in both directions.
 Maximum points per path      = 120
 Step size                    =   0.100 bohr
 Integration scheme           = HPC                                 
    Redo corrector integration= Yes                                 
    DWI Weight Power          =  2
    DWI will use Hessian update vectors when possible.
    Max correction cycles     =  20
 Initial Hessian              = CalcFC
 Hessian evaluation           = Analytic every   3 predictor steps
                              = Update at all corrector steps
 Hessian updating method      = Bofill                              
 ------------------------------------------------------------------------
 IRC-IRC-IRC-IRC-IRC-IRC-IRC-IRC-IRC-IRC-IRC-IRC-IRC-IRC-IRC-IRC-IRC-IRC
 Symmetry turned off by external request.
 Stoichiometry    C20H29BrCl6CoLiN7O(4)
 Framework group  C1[X(C20H29BrCl6CoLiN7O)]
 Deg. of freedom   192
 Full point group                 C1      NOp   1
                          Input orientation:                          
 ---------------------------------------------------------------------
 Center     Atomic      Atomic             Coordinates (Angstroms)
 Number     Number       Type             X           Y           Z
 ---------------------------------------------------------------------
      1          3           0       -0.658759   -5.046055   -3.464522
      2          7           0       -0.328360   -3.614087   -2.281904
      3          6           0       -0.992900   -3.992811   -1.150829
      4         17           0       -1.725150   -5.569279   -1.121221
      5          7           0        2.258511    2.612686   -2.483143
      6          6           0        3.163429    1.605367   -2.420788
      7         17           0        4.742141    1.730116   -3.122053
      8          7           0       -3.379063    2.028570    1.064048
      9          6           0       -3.606692    1.948745   -0.268151
     10         17           0       -5.030749    2.589434   -1.010253
     11          7           0       -0.259187   -1.953651   -0.785634
     12          6           0       -0.959745   -2.987580   -0.229864
     13         17           0       -1.633872   -2.926507    1.338509
     14          7           0       -1.647797    0.972707    0.066264
     15          6           0       -2.565160    1.307312   -0.887799
     16         17           0       -2.337985    0.917767   -2.555538
     17          7           0        1.371386    0.868865   -1.347868
     18          6           0        2.639590    0.541674   -1.730849
     19         17           0        3.366905   -0.975415   -1.349897
     20          6           0        0.090394   -2.373654   -2.003979
     21          1           0        0.657644   -1.762162   -2.689924
     22          6           0       -2.206314    1.434125    1.216371
     23          1           0       -1.716707    1.305404    2.172032
     24          6           0        1.206195    2.120909   -1.832692
     25          1           0        0.276000    2.657268   -1.700984
     26         27           0        0.055648   -0.048815   -0.083726
     27          6           0        2.124227    0.466024    2.016596
     28          6           0        1.296591    1.605499    2.378937
     29          8           0        0.818875   -0.012992    1.718521
     30          6           0        2.833178   -0.297987    3.102405
     31          1           0        0.947184    2.279227    1.613946
     32          1           0        0.805419    1.613963    3.339570
     33          1           0        3.165570   -1.268688    2.725537
     34          1           0        2.161169   -0.463352    3.947938
     35          1           0        3.699828    0.271797    3.445598
     36          1           0        2.746478    0.618029    1.131070
     37          7           0        3.738683    5.617952   -0.273002
     38          6           0        3.735774    6.414025    1.026329
     39          6           0        5.050409    7.041460    1.466154
     40          1           0        3.360168    5.730333    1.792741
     41          1           0        3.001132    7.208220    0.879623
     42          1           0        4.868974    7.487691    2.447040
     43          1           0        5.857231    6.320808    1.586371
     44          1           0        5.385360    7.841588    0.803193
     45          6           0        4.606800    6.306975   -1.297718
     46          6           0        4.617533    5.682914   -2.683742
     47          1           0        5.616496    6.327292   -0.892244
     48          1           0        4.249067    7.339045   -1.342167
     49          1           0        5.268818    6.295222   -3.312642
     50          1           0        5.015876    4.667715   -2.686393
     51          1           0        3.632830    5.658096   -3.150695
     52          6           0        2.309433    5.574911   -0.813074
     53          6           0        1.227354    5.291362    0.217989
     54          1           0        2.304293    4.804177   -1.585488
     55          1           0        2.140802    6.547985   -1.281900
     56          1           0        0.314669    5.035747   -0.325315
     57          1           0        1.472655    4.461860    0.883104
     58          1           0        1.004257    6.155657    0.845307
     59          6           0        4.173003    4.174378   -0.055665
     60          6           0        5.562926    3.951200    0.507503
     61          1           0        4.050993    3.687354   -1.019493
     62          1           0        3.455726    3.750001    0.647012
     63          1           0        5.759927    2.879389    0.428782
     64          1           0        6.356498    4.464345   -0.041480
     65          1           0        5.611936    4.201214    1.567719
     66         35           0        2.869170    3.462276    3.201212
 ---------------------------------------------------------------------
 Rotational constants (GHZ):           0.0867078           0.0416109           0.0386218
 General basis read from cards:  (5D, 7F)
 ======================================================================================================
                                       Pseudopotential Parameters
 ======================================================================================================
  Center     Atomic      Valence      Angular      Power
  Number     Number     Electrons     Momentum     of R      Exponent        Coefficient   SO-Coeffient
 ======================================================================================================
    1          3
                                   No pseudopotential on this center.
    2          7
                                   No pseudopotential on this center.
    3          6
                                   No pseudopotential on this center.
    4         17
                                   No pseudopotential on this center.
    5          7
                                   No pseudopotential on this center.
    6          6
                                   No pseudopotential on this center.
    7         17
                                   No pseudopotential on this center.
    8          7
                                   No pseudopotential on this center.
    9          6
                                   No pseudopotential on this center.
   10         17
                                   No pseudopotential on this center.
   11          7
                                   No pseudopotential on this center.
   12          6
                                   No pseudopotential on this center.
   13         17
                                   No pseudopotential on this center.
   14          7
                                   No pseudopotential on this center.
   15          6
                                   No pseudopotential on this center.
   16         17
                                   No pseudopotential on this center.
   17          7
                                   No pseudopotential on this center.
   18          6
                                   No pseudopotential on this center.
   19         17
                                   No pseudopotential on this center.
   20          6
                                   No pseudopotential on this center.
   21          1
                                   No pseudopotential on this center.
   22          6
                                   No pseudopotential on this center.
   23          1
                                   No pseudopotential on this center.
   24          6
                                   No pseudopotential on this center.
   25          1
                                   No pseudopotential on this center.
   26         27           17
                                      D and up 
                                                     1      434.1076104      -10.00000000    0.00000000
                                                     2       78.8402758      -66.72402760    0.00000000
                                                     2       19.6037749      -11.71922430    0.00000000
                                      S - D
                                                     0      151.2307582        3.00000000    0.00000000
                                                     1      169.6790026       20.15531100    0.00000000
                                                     2       64.9909423      413.37622440    0.00000000
                                                     2       12.5076287      133.87277050    0.00000000
                                      P - D
                                                     0       92.7319924        5.00000000    0.00000000
                                                     1      121.1910183        6.18923530    0.00000000
                                                     2       48.6265909      326.32159190    0.00000000
                                                     2       11.9966971       73.87889700    0.00000000
   27          6
                                   No pseudopotential on this center.
   28          6
                                   No pseudopotential on this center.
   29          8
                                   No pseudopotential on this center.
   30          6
                                   No pseudopotential on this center.
   31          1
                                   No pseudopotential on this center.
   32          1
                                   No pseudopotential on this center.
   33          1
                                   No pseudopotential on this center.
   34          1
                                   No pseudopotential on this center.
   35          1
                                   No pseudopotential on this center.
   36          1
                                   No pseudopotential on this center.
   37          7
                                   No pseudopotential on this center.
   38          6
                                   No pseudopotential on this center.
   39          6
                                   No pseudopotential on this center.
   40          1
                                   No pseudopotential on this center.
   41          1
                                   No pseudopotential on this center.
   42          1
                                   No pseudopotential on this center.
   43          1
                                   No pseudopotential on this center.
   44          1
                                   No pseudopotential on this center.
   45          6
                                   No pseudopotential on this center.
   46          6
                                   No pseudopotential on this center.
   47          1
                                   No pseudopotential on this center.
   48          1
                                   No pseudopotential on this center.
   49          1
                                   No pseudopotential on this center.
   50          1
                                   No pseudopotential on this center.
   51          1
                                   No pseudopotential on this center.
   52          6
                                   No pseudopotential on this center.
   53          6
                                   No pseudopotential on this center.
   54          1
                                   No pseudopotential on this center.
   55          1
                                   No pseudopotential on this center.
   56          1
                                   No pseudopotential on this center.
   57          1
                                   No pseudopotential on this center.
   58          1
                                   No pseudopotential on this center.
   59          6
                                   No pseudopotential on this center.
   60          6
                                   No pseudopotential on this center.
   61          1
                                   No pseudopotential on this center.
   62          1
                                   No pseudopotential on this center.
   63          1
                                   No pseudopotential on this center.
   64          1
                                   No pseudopotential on this center.
   65          1
                                   No pseudopotential on this center.
   66         35
                                   No pseudopotential on this center.
 ======================================================================================================
   709 basis functions,  1462 primitive gaussians,   748 cartesian basis functions
   183 alpha electrons      180 beta electrons
       nuclear repulsion energy      6766.4867360281 Hartrees.
 NAtoms=   66 NActive=   66 NUniq=   66 SFac= 1.00D+00 NAtFMM=   60 NAOKFM=T Big=T
 Integral buffers will be    131072 words long.
 Raffenetti 2 integral format.
 Two-electron integral symmetry is turned off.
 One-electron integrals computed using PRISM.
   1 Symmetry operations used in ECPInt.
 ECPInt:  NShTT=   32131 NPrTT=  189684 LenC2=   23922 LenP2D=   73410.
 LDataN:  DoStor=T MaxTD1= 4 Len=   56
 NBasis=   709 RedAO= T EigKep=  1.34D-03  NBF=   709
 NBsUse=   709 1.00D-06 EigRej= -1.00D+00 NBFU=   709
 ExpMin= 2.30D-02 ExpMax= 5.74D+05 ExpMxC= 5.74D+03 IAcc=3 IRadAn=         5 AccDes= 0.00D+00
 Harris functional with IExCor=20419 and IRadAn=       5 diagonalized for initial guess.
 HarFok:  IExCor=20419 AccDes= 0.00D+00 IRadAn=         5 IDoV= 1 UseB2=F ITyADJ=14
 ICtDFT=  3500011 ScaDFX=  1.000000  1.000000  1.000000  1.000000
 FoFCou: FMM=F IPFlag=           0 FMFlag=      100000 FMFlg1=        2001
         NFxFlg=           0 DoJE=T BraDBF=F KetDBF=T FulRan=T
         wScrn=  0.000000 ICntrl=       500 IOpCl=  0 I1Cent=   200000004 NGrid=           0
         NMat0=    1 NMatS0=      1 NMatT0=    0 NMatD0=    1 NMtDS0=    0 NMtDT0=    0
 Symmetry not used in FoFCou.
 Initial guess <Sx>= 0.0000 <Sy>= 0.0000 <Sz>= 1.5000 <S**2>= 3.7500 S= 1.5000
 Gradient too large for Newton-Raphson -- use scaled steepest descent instead.
     Accept linear search using points  3 and  4.
 Gradient too large for Newton-Raphson -- use scaled steepest descent instead.
 Gradient too large for Newton-Raphson -- use scaled steepest descent instead.
     Accept linear search using points  1 and  2.
 Gradient too large for Newton-Raphson -- use scaled steepest descent instead.
 Gradient too large for Newton-Raphson -- use scaled steepest descent instead.
     Accept linear search using points  1 and  2.
 Gradient too large for Newton-Raphson -- use scaled steepest descent instead.
     Accept linear search using points  2 and  3.
 Gradient too large for Newton-Raphson -- use scaled steepest descent instead.
 Restarting incremental Fock formation.
     Accept linear search using points  1 and  2.
 Gradient too large for Newton-Raphson -- use scaled steepest descent instead.
     Accept linear search using points  3 and  4.
 Gradient too large for Newton-Raphson -- use scaled steepest descent instead.
     Accept linear search using points  2 and  3.
 Gradient too large for Newton-Raphson -- use scaled steepest descent instead.
     Minimum is close to point  3 DX= -1.49D-02 DF= -1.33D-04 DXR=  3.86D-02 DFR=  1.49D-03 which will be used.
 Gradient too large for Newton-Raphson -- use scaled steepest descent instead.
     Minimum is close to point  2 DX=  5.51D-02 DF= -4.88D-04 DXR=  8.42D-02 DFR=  7.13D-03 which will be used.
 Gradient too large for Newton-Raphson -- use scaled steepest descent instead.
     Accept linear search using points  2 and  3.
 Gradient too large for Newton-Raphson -- use scaled steepest descent instead.
 Gradient too large for Newton-Raphson -- use scaled steepest descent instead.
     Accept linear search using points  1 and  2.
     Minimum is close to point  2 DX= -4.68D-02 DF= -4.49D-05 DXR=  7.16D-02 DFR=  1.76D-03 which will be used.
 Gradient too large for Newton-Raphson -- use scaled steepest descent instead.
 Restarting incremental Fock formation.
     Minimum is close to point  2 DX=  5.96D-02 DF= -9.66D-05 DXR=  7.85D-02 DFR=  6.20D-03 which will be used.
 Gradient too large for Newton-Raphson -- use scaled steepest descent instead.
     Accept linear search using points  2 and  3.
 Gradient too large for Newton-Raphson -- use scaled steepest descent instead.
     Accept linear search using points  1 and  2.
 Gradient too large for Newton-Raphson -- use scaled steepest descent instead.
     Accept linear search using points  2 and  3.
 Gradient too large for Newton-Raphson -- use scaled steepest descent instead.
     Accept linear search using points  1 and  2.
 Gradient too large for Newton-Raphson -- use scaled steepest descent instead.
     Accept linear search using points  2 and  3.
 Gradient too large for Newton-Raphson -- use scaled steepest descent instead.
     Accept linear search using points  1 and  2.
 Gradient too large for Newton-Raphson -- use scaled steepest descent instead.
     Accept linear search using points  2 and  3.
 Gradient too large for Newton-Raphson -- use scaled steepest descent instead.
 Restarting incremental Fock formation.
     Accept linear search using points  1 and  2.
 Gradient too large for Newton-Raphson -- use scaled steepest descent instead.
     Accept linear search using points  2 and  3.
 Gradient too large for Newton-Raphson -- use scaled steepest descent instead.
     Accept linear search using points  1 and  2.
 Gradient too large for Newton-Raphson -- use scaled steepest descent instead.
     Minimum is close to point  3 DX=  1.09D-02 DF= -1.81D-08 DXR=  6.03D-03 DFR=  3.65D-05 which will be used.
 Gradient too large for Newton-Raphson -- use scaled steepest descent instead.
     Accept linear search using points  1 and  2.
 Gradient too large for Newton-Raphson -- use scaled steepest descent instead.
     Accept linear search using points  2 and  3.
     Minimum is close to point  3 DX= -1.43D-01 DF= -2.63D-06 DXR=  8.12D-02 DFR=  5.94D-03 which will be used.
 Gradient too large for Newton-Raphson -- use scaled steepest descent instead.
     Accept linear search using points  1 and  2.
 Gradient too large for Newton-Raphson -- use scaled steepest descent instead.
 Gradient too large for Newton-Raphson -- use scaled steepest descent instead.
 Restarting incremental Fock formation.
     Minimum is close to point  3 DX= -1.53D-02 DF= -5.16D-07 DXR=  3.16D-02 DFR=  1.00D-03 which will be used.
 Gradient too large for Newton-Raphson -- use scaled steepest descent instead.
     Accept linear search using points  2 and  3.
 Gradient too large for Newton-Raphson -- use scaled steepest descent instead.
     Accept linear search using points  1 and  2.
 Gradient too large for Newton-Raphson -- use scaled steepest descent instead.
     Minimum is close to point  3 DX=  8.36D-02 DF= -8.41D-07 DXR=  4.22D-02 DFR=  1.78D-03 which will be used.
 Gradient too large for Newton-Raphson -- use scaled steepest descent instead.
     Accept linear search using points  1 and  2.
 Gradient too large for Newton-Raphson -- use scaled steepest descent instead.
     Accept linear search using points  2 and  3.
 Gradient too large for Newton-Raphson -- use scaled steepest descent instead.
     Accept linear search using points  1 and  2.
 Gradient too large for Newton-Raphson -- use scaled steepest descent instead.
     Accept linear search using points  2 and  3.
     Minimum is close to point  3 DX= -1.28D-01 DF= -2.04D-06 DXR=  7.21D-02 DFR=  4.62D-03 which will be used.
 Gradient too large for Newton-Raphson -- use scaled steepest descent instead.
 Restarting incremental Fock formation.
     Minimum is close to point  3 DX= -2.61D-03 DF= -1.31D-08 DXR=  5.25D-03 DFR=  2.76D-05 which will be used.
 Gradient too large for Newton-Raphson -- use scaled steepest descent instead.
     Minimum is close to point  3 DX=  1.78D-04 DF= -9.09D-13 DXR=  9.35D-05 DFR=  2.01D-09 which will be used.
 Gradient too large for Newton-Raphson -- use scaled steepest descent instead.
     Accept linear search using points  1 and  2.
 Gradient too large for Newton-Raphson -- use scaled steepest descent instead.
     Accept linear search using points  2 and  3.
     Minimum is close to point  3 DX= -1.14D-01 DF= -1.59D-06 DXR=  6.04D-02 DFR=  3.67D-03 which will be used.
 Gradient too large for Newton-Raphson -- use scaled steepest descent instead.
     Minimum is close to point  3 DX= -1.07D-02 DF= -2.22D-07 DXR=  2.19D-02 DFR=  4.80D-04 which will be used.
 Gradient too large for Newton-Raphson -- use scaled steepest descent instead.
     Accept linear search using points  2 and  3.
     Minimum is close to point  3 DX= -1.72D-01 DF= -3.56D-06 DXR=  9.98D-02 DFR=  9.19D-03 which will be used.
 Gradient too large for Newton-Raphson -- use scaled steepest descent instead.
     Accept linear search using points  1 and  2.
 Gradient too large for Newton-Raphson -- use scaled steepest descent instead.
 Gradient too large for Newton-Raphson -- use scaled steepest descent instead.
     Minimum is close to point  3 DX= -2.00D-02 DF= -7.36D-07 DXR=  4.17D-02 DFR=  1.74D-03 which will be used.
 Gradient too large for Newton-Raphson -- use scaled steepest descent instead.
 Restarting incremental Fock formation.
     Accept linear search using points  2 and  3.
 Gradient too large for Newton-Raphson -- use scaled steepest descent instead.
     Accept linear search using points  1 and  2.
 Gradient too large for Newton-Raphson -- use scaled steepest descent instead.
     Minimum is close to point  3 DX=  4.36D-02 DF= -1.75D-07 DXR=  2.36D-02 DFR=  5.60D-04 which will be used.
 Gradient too large for Newton-Raphson -- use scaled steepest descent instead.
     Accept linear search using points  1 and  2.
 LinEq1:  Iter=  0 NonCon=     1 RMS=5.32D-05 Max=7.11D-03 NDo=     1
 AX will form     1 AO Fock derivatives at one time.
 LinEq1:  Iter=  1 NonCon=     1 RMS=4.49D-05 Max=3.74D-03 NDo=     1
 LinEq1:  Iter=  2 NonCon=     1 RMS=9.29D-06 Max=1.47D-03 NDo=     1
 LinEq1:  Iter=  3 NonCon=     1 RMS=3.81D-06 Max=2.92D-04 NDo=     1
 LinEq1:  Iter=  4 NonCon=     1 RMS=1.94D-06 Max=1.41D-04 NDo=     1
 LinEq1:  Iter=  5 NonCon=     1 RMS=1.43D-06 Max=9.85D-05 NDo=     1
 LinEq1:  Iter=  6 NonCon=     1 RMS=6.88D-07 Max=6.77D-05 NDo=     1
 LinEq1:  Iter=  7 NonCon=     1 RMS=5.58D-07 Max=4.35D-05 NDo=     1
 LinEq1:  Iter=  8 NonCon=     1 RMS=3.12D-07 Max=1.96D-05 NDo=     1
 LinEq1:  Iter=  9 NonCon=     1 RMS=1.92D-07 Max=1.32D-05 NDo=     1
 LinEq1:  Iter= 10 NonCon=     1 RMS=1.15D-07 Max=9.00D-06 NDo=     1
 LinEq1:  Iter= 11 NonCon=     1 RMS=9.36D-08 Max=8.29D-06 NDo=     1
 LinEq1:  Iter= 12 NonCon=     1 RMS=5.48D-08 Max=2.86D-06 NDo=     1
 LinEq1:  Iter= 13 NonCon=     1 RMS=2.85D-08 Max=1.69D-06 NDo=     1
 LinEq1:  Iter= 14 NonCon=     1 RMS=1.47D-08 Max=6.89D-07 NDo=     1
 LinEq1:  Iter= 15 NonCon=     0 RMS=7.25D-09 Max=3.84D-07 NDo=     1
 Linear equations converged to 4.376D-08 4.376D-07 after    15 iterations.
     Accept linear search using points  1 and  2.
 LinEq1:  Iter=  0 NonCon=     1 RMS=2.09D-05 Max=1.05D-03 NDo=     1
 LinEq1:  Iter=  1 NonCon=     1 RMS=2.01D-05 Max=1.27D-03 NDo=     1
 LinEq1:  Iter=  2 NonCon=     1 RMS=7.18D-06 Max=6.06D-04 NDo=     1
 LinEq1:  Iter=  3 NonCon=     1 RMS=7.66D-06 Max=8.74D-04 NDo=     1
 LinEq1:  Iter=  4 NonCon=     1 RMS=2.81D-06 Max=2.02D-04 NDo=     1
 LinEq1:  Iter=  5 NonCon=     1 RMS=1.68D-06 Max=7.98D-05 NDo=     1
 LinEq1:  Iter=  6 NonCon=     1 RMS=1.21D-06 Max=9.44D-05 NDo=     1
 LinEq1:  Iter=  7 NonCon=     1 RMS=9.76D-07 Max=6.41D-05 NDo=     1
 LinEq1:  Iter=  8 NonCon=     1 RMS=5.96D-07 Max=3.49D-05 NDo=     1
 LinEq1:  Iter=  9 NonCon=     1 RMS=3.44D-07 Max=2.12D-05 NDo=     1
 LinEq1:  Iter= 10 NonCon=     1 RMS=2.01D-07 Max=1.94D-05 NDo=     1
 LinEq1:  Iter= 11 NonCon=     1 RMS=1.16D-07 Max=7.86D-06 NDo=     1
 LinEq1:  Iter= 12 NonCon=     1 RMS=7.28D-08 Max=6.67D-06 NDo=     1
 LinEq1:  Iter= 13 NonCon=     1 RMS=5.19D-08 Max=4.40D-06 NDo=     1
 LinEq1:  Iter= 14 NonCon=     1 RMS=3.45D-08 Max=2.26D-06 NDo=     1
 LinEq1:  Iter= 15 NonCon=     1 RMS=2.10D-08 Max=1.14D-06 NDo=     1
 LinEq1:  Iter= 16 NonCon=     1 RMS=1.44D-08 Max=6.86D-07 NDo=     1
 LinEq1:  Iter= 17 NonCon=     0 RMS=7.55D-09 Max=3.66D-07 NDo=     1
 Linear equations converged to 4.376D-08 4.376D-07 after    17 iterations.
     Minimum is close to point  2 DX=  3.24D-04 DF= -7.28D-12 DXR=  3.24D-04 DFR=  1.20D-07 which will be used.
 LinEq1:  Iter=  0 NonCon=     1 RMS=1.05D-07 Max=7.27D-06 NDo=     1
 LinEq1:  Iter=  1 NonCon=     1 RMS=8.16D-08 Max=5.87D-06 NDo=     1
 LinEq1:  Iter=  2 NonCon=     1 RMS=5.31D-08 Max=4.31D-06 NDo=     1
 LinEq1:  Iter=  3 NonCon=     1 RMS=4.25D-08 Max=2.96D-06 NDo=     1
 LinEq1:  Iter=  4 NonCon=     1 RMS=3.12D-08 Max=2.00D-06 NDo=     1
 LinEq1:  Iter=  5 NonCon=     1 RMS=2.03D-08 Max=1.62D-06 NDo=     1
 LinEq1:  Iter=  6 NonCon=     1 RMS=1.38D-08 Max=9.51D-07 NDo=     1
 LinEq1:  Iter=  7 NonCon=     1 RMS=9.62D-09 Max=6.60D-07 NDo=     1
 LinEq1:  Iter=  8 NonCon=     1 RMS=6.02D-09 Max=4.25D-07 NDo=     1
 LinEq1:  Iter=  9 NonCon=     1 RMS=3.98D-09 Max=3.00D-07 NDo=     1
 LinEq1:  Iter= 10 NonCon=     1 RMS=2.63D-09 Max=1.66D-07 NDo=     1
 LinEq1:  Iter= 11 NonCon=     1 RMS=1.51D-09 Max=8.66D-08 NDo=     1
 LinEq1:  Iter= 12 NonCon=     1 RMS=9.02D-10 Max=5.80D-08 NDo=     1
 LinEq1:  Iter= 13 NonCon=     1 RMS=5.98D-10 Max=4.56D-08 NDo=     1
 LinEq1:  Iter= 14 NonCon=     1 RMS=4.75D-10 Max=4.36D-08 NDo=     1
 LinEq1:  Iter= 15 NonCon=     1 RMS=3.12D-10 Max=3.44D-08 NDo=     1
 LinEq1:  Iter= 16 NonCon=     1 RMS=1.75D-10 Max=1.21D-08 NDo=     1
 LinEq1:  Iter= 17 NonCon=     1 RMS=1.22D-10 Max=8.32D-09 NDo=     1
 LinEq1:  Iter= 18 NonCon=     1 RMS=5.97D-11 Max=4.44D-09 NDo=     1
 LinEq1:  Iter= 19 NonCon=     0 RMS=3.38D-11 Max=2.79D-09 NDo=     1
 Linear equations converged to 4.191D-10 4.191D-09 after    19 iterations.
 SCF Done:  E(UCAM-B3LYP) =  -6722.68614475     a.u. after   55 cycles
            Convg  =    0.2164D-06                   186 Fock formations.
              S**2 =  3.7548                  -V/T =  2.0107
 <Sx>= 0.0000 <Sy>= 0.0000 <Sz>= 1.5000 <S**2>= 3.7548 S= 1.5012
 <L.S>=  0.00000000000    
 Annihilation of the first spin contaminant:
 S**2 before annihilation     3.7548,   after     3.7500
 DoSCS=F DFT=T ScalE2(SS,OS)=  1.000000  1.000000
 Range of M.O.s used for correlation:     1   709
 NBasis=   709 NAE=   183 NBE=   180 NFC=     0 NFV=     0
 NROrb=    709 NOA=   183 NOB=   180 NVA=   526 NVB=   529
   1 Symmetry operations used in ECPInt.
 ECPInt:  NShTT=   32131 NPrTT=  189684 LenC2=   23922 LenP2D=   73410.
 LDataN:  DoStor=T MaxTD1= 5 Len=  102
 Number of processors reduced to  12 by ecpmxn.
 Symmetrizing basis deriv contribution to polar:
 IMax=3 JMax=2 DiffMx= 0.00D+00
 G2DrvN: will do    67 centers at a time, making    1 passes.
 Calling FoFCou, ICntrl=  3107 FMM=T I1Cent=   0 AccDes= 0.00D+00.
 End of G2Drv F.D. properties file   721 does not exist.
 End of G2Drv F.D. properties file   722 does not exist.
 End of G2Drv F.D. properties file   788 does not exist.
          IDoAtm=00110110111111111111111111111111111111111111111111
          IDoAtm=1111111111111111
          Differentiating once with respect to nuclear coordinates.
 CalDSu exits because no D1Ps are significant.
          There are   189 degrees of freedom in the 1st order CPHF.  IDoFFX=6 NUNeed=     0.
    186 vectors produced by pass  0 Test12= 1.91D-13 1.00D-09 XBig12= 2.37D-01 8.50D-02.
 AX will form    96 AO Fock derivatives at one time.
    186 vectors produced by pass  1 Test12= 1.91D-13 1.00D-09 XBig12= 3.33D-02 3.98D-02.
    186 vectors produced by pass  2 Test12= 1.91D-13 1.00D-09 XBig12= 1.17D-03 4.60D-03.
    186 vectors produced by pass  3 Test12= 1.91D-13 1.00D-09 XBig12= 2.60D-05 7.20D-04.
    186 vectors produced by pass  4 Test12= 1.91D-13 1.00D-09 XBig12= 4.17D-07 8.37D-05.
    186 vectors produced by pass  5 Test12= 1.91D-13 1.00D-09 XBig12= 4.67D-09 9.05D-06.
    140 vectors produced by pass  6 Test12= 1.91D-13 1.00D-09 XBig12= 4.51D-11 7.61D-07.
     76 vectors produced by pass  7 Test12= 1.91D-13 1.00D-09 XBig12= 4.10D-13 5.12D-08.
     33 vectors produced by pass  8 Test12= 1.91D-13 1.00D-09 XBig12= 3.49D-15 6.70D-09.
 InvSVY:  IOpt=1 It=  1 EMax= 5.55D-16
 Solved reduced A of dimension  1365 with   189 vectors.
 End of Minotr F.D. properties file   721 does not exist.
 End of Minotr F.D. properties file   722 does not exist.
 End of Minotr F.D. properties file   788 does not exist.

 **********************************************************************

            Population analysis using the SCF Density.

 **********************************************************************

 Alpha  occ. eigenvalues -- -482.62358-101.65538-101.61323-101.60360-101.59732
 Alpha  occ. eigenvalues -- -101.58137-101.56017 -61.70510 -56.27346 -56.27256
 Alpha  occ. eigenvalues --  -56.27224 -19.20422 -14.54192 -14.43651 -14.43494
 Alpha  occ. eigenvalues --  -14.41023 -14.38728 -14.38033 -14.34528 -10.35075
 Alpha  occ. eigenvalues --  -10.34739 -10.33728 -10.32911 -10.32383 -10.32108
 Alpha  occ. eigenvalues --  -10.31635 -10.31310 -10.31007 -10.30713 -10.29892
 Alpha  occ. eigenvalues --  -10.28868 -10.28865 -10.28011 -10.27926 -10.27813
 Alpha  occ. eigenvalues --  -10.26525 -10.26173 -10.26105 -10.22888  -9.58757
 Alpha  occ. eigenvalues --   -9.54497  -9.53519  -9.52936  -9.51302  -9.49279
 Alpha  occ. eigenvalues --   -8.48570  -7.35143  -7.34273  -7.34143  -7.30982
 Alpha  occ. eigenvalues --   -7.29960  -7.29905  -7.29901  -7.29360  -7.28956
 Alpha  occ. eigenvalues --   -7.28950  -7.28390  -7.28361  -7.27732  -7.26748
 Alpha  occ. eigenvalues --   -7.26736  -7.25708  -7.24718  -7.24701  -6.49723
 Alpha  occ. eigenvalues --   -6.49411  -6.49364  -3.93210  -2.63165  -2.63031
 Alpha  occ. eigenvalues --   -2.62425  -2.61979  -2.61906  -2.61868  -2.61622
 Alpha  occ. eigenvalues --   -2.61621  -2.15355  -1.12290  -1.10930  -1.08317
 Alpha  occ. eigenvalues --   -1.08038  -1.05457  -1.00098  -0.97361  -0.95481
 Alpha  occ. eigenvalues --   -0.94315  -0.92765  -0.92547  -0.91250  -0.89355
 Alpha  occ. eigenvalues --   -0.89139  -0.88566  -0.87860  -0.86186  -0.83248
 Alpha  occ. eigenvalues --   -0.82000  -0.81125  -0.77263  -0.76608  -0.75946
 Alpha  occ. eigenvalues --   -0.75238  -0.74453  -0.73469  -0.70931  -0.68735
 Alpha  occ. eigenvalues --   -0.66543  -0.66331  -0.64850  -0.64539  -0.62256
 Alpha  occ. eigenvalues --   -0.61942  -0.61052  -0.60654  -0.60537  -0.59346
 Alpha  occ. eigenvalues --   -0.58704  -0.57489  -0.56698  -0.56554  -0.54594
 Alpha  occ. eigenvalues --   -0.54474  -0.54253  -0.52646  -0.52467  -0.51752
 Alpha  occ. eigenvalues --   -0.51337  -0.50753  -0.50280  -0.49834  -0.49662
 Alpha  occ. eigenvalues --   -0.49406  -0.48960  -0.48459  -0.48294  -0.47939
 Alpha  occ. eigenvalues --   -0.47600  -0.47107  -0.47046  -0.46863  -0.46436
 Alpha  occ. eigenvalues --   -0.46371  -0.46181  -0.45859  -0.45289  -0.44975
 Alpha  occ. eigenvalues --   -0.44828  -0.44447  -0.43922  -0.43755  -0.43568
 Alpha  occ. eigenvalues --   -0.43522  -0.43372  -0.42789  -0.42288  -0.42118
 Alpha  occ. eigenvalues --   -0.42048  -0.41599  -0.41033  -0.40514  -0.40088
 Alpha  occ. eigenvalues --   -0.39584  -0.38707  -0.38370  -0.38060  -0.37630
 Alpha  occ. eigenvalues --   -0.37550  -0.36703  -0.36153  -0.35688  -0.35012
 Alpha  occ. eigenvalues --   -0.34404  -0.33501  -0.32567  -0.31506  -0.30828
 Alpha  occ. eigenvalues --   -0.29267  -0.28929  -0.28030  -0.26427  -0.26381
 Alpha  occ. eigenvalues --   -0.25782  -0.25573  -0.22720
 Alpha virt. eigenvalues --   -0.05353   0.00485   0.01235   0.04815   0.05402
 Alpha virt. eigenvalues --    0.05791   0.06160   0.07292   0.07506   0.08470
 Alpha virt. eigenvalues --    0.08600   0.09322   0.10151   0.10447   0.10791
 Alpha virt. eigenvalues --    0.11543   0.11781   0.12398   0.12690   0.12935
 Alpha virt. eigenvalues --    0.13318   0.13397   0.13561   0.13833   0.14118
 Alpha virt. eigenvalues --    0.14547   0.14766   0.15764   0.15790   0.16025
 Alpha virt. eigenvalues --    0.16204   0.16724   0.17387   0.18024   0.18656
 Alpha virt. eigenvalues --    0.19007   0.19105   0.19437   0.20290   0.20578
 Alpha virt. eigenvalues --    0.20690   0.21235   0.21649   0.21870   0.22138
 Alpha virt. eigenvalues --    0.22478   0.22737   0.23267   0.23740   0.23931
 Alpha virt. eigenvalues --    0.24293   0.24582   0.25683   0.25930   0.26378
 Alpha virt. eigenvalues --    0.26491   0.26996   0.27294   0.27650   0.27949
 Alpha virt. eigenvalues --    0.28451   0.28676   0.29297   0.29749   0.31013
 Alpha virt. eigenvalues --    0.31277   0.32098   0.32486   0.32852   0.32994
 Alpha virt. eigenvalues --    0.33489   0.34620   0.35994   0.37111   0.38062
 Alpha virt. eigenvalues --    0.38464   0.39572   0.40080   0.40524   0.41869
 Alpha virt. eigenvalues --    0.42229   0.42698   0.43535   0.43799   0.44449
 Alpha virt. eigenvalues --    0.45211   0.46640   0.47166   0.47669   0.47771
 Alpha virt. eigenvalues --    0.48435   0.48843   0.49539   0.49824   0.50079
 Alpha virt. eigenvalues --    0.50211   0.50799   0.51273   0.51501   0.51780
 Alpha virt. eigenvalues --    0.52265   0.52464   0.52754   0.53192   0.53586
 Alpha virt. eigenvalues --    0.54336   0.54776   0.55599   0.55883   0.56278
 Alpha virt. eigenvalues --    0.56612   0.56835   0.57709   0.58064   0.58498
 Alpha virt. eigenvalues --    0.58888   0.59614   0.59969   0.60353   0.60793
 Alpha virt. eigenvalues --    0.61153   0.61484   0.62080   0.62416   0.62778
 Alpha virt. eigenvalues --    0.63378   0.63812   0.64351   0.64709   0.65080
 Alpha virt. eigenvalues --    0.65369   0.65856   0.66011   0.66676   0.66763
 Alpha virt. eigenvalues --    0.67113   0.67305   0.67621   0.68303   0.68487
 Alpha virt. eigenvalues --    0.68925   0.69587   0.69902   0.70374   0.70933
 Alpha virt. eigenvalues --    0.71285   0.71366   0.71694   0.72411   0.72563
 Alpha virt. eigenvalues --    0.73247   0.73701   0.74055   0.74204   0.74523
 Alpha virt. eigenvalues --    0.75060   0.75785   0.76666   0.77120   0.77129
 Alpha virt. eigenvalues --    0.78602   0.79158   0.79336   0.80171   0.81047
 Alpha virt. eigenvalues --    0.81431   0.81916   0.83072   0.83634   0.84142
 Alpha virt. eigenvalues --    0.84196   0.85350   0.85861   0.86380   0.86899
 Alpha virt. eigenvalues --    0.87124   0.87462   0.87986   0.88416   0.88969
 Alpha virt. eigenvalues --    0.89238   0.89681   0.90090   0.90475   0.90792
 Alpha virt. eigenvalues --    0.91073   0.91357   0.91497   0.91612   0.91780
 Alpha virt. eigenvalues --    0.92157   0.92229   0.92352   0.92648   0.92900
 Alpha virt. eigenvalues --    0.92949   0.93320   0.93636   0.94144   0.94721
 Alpha virt. eigenvalues --    0.94966   0.95137   0.95199   0.95380   0.95805
 Alpha virt. eigenvalues --    0.96187   0.96586   0.96911   0.97321   0.97479
 Alpha virt. eigenvalues --    0.97949   0.98283   0.98331   0.98859   0.99190
 Alpha virt. eigenvalues --    0.99872   1.00091   1.00228   1.00547   1.01273
 Alpha virt. eigenvalues --    1.01697   1.01941   1.02424   1.02811   1.03259
 Alpha virt. eigenvalues --    1.03570   1.03766   1.04378   1.04603   1.05045
 Alpha virt. eigenvalues --    1.05352   1.05834   1.06081   1.06458   1.07355
 Alpha virt. eigenvalues --    1.08051   1.08370   1.08808   1.08847   1.09384
 Alpha virt. eigenvalues --    1.09700   1.09961   1.10776   1.11354   1.11737
 Alpha virt. eigenvalues --    1.13132   1.13226   1.13823   1.14382   1.14620
 Alpha virt. eigenvalues --    1.15579   1.16066   1.16230   1.17277   1.17823
 Alpha virt. eigenvalues --    1.18728   1.19348   1.20556   1.21106   1.22125
 Alpha virt. eigenvalues --    1.22682   1.24358   1.24938   1.25502   1.25872
 Alpha virt. eigenvalues --    1.27222   1.28089   1.29299   1.30429   1.31123
 Alpha virt. eigenvalues --    1.32181   1.33882   1.36075   1.36371   1.37344
 Alpha virt. eigenvalues --    1.38073   1.38296   1.39795   1.40744   1.41872
 Alpha virt. eigenvalues --    1.42393   1.42594   1.44438   1.45452   1.45859
 Alpha virt. eigenvalues --    1.46359   1.47671   1.48169   1.48230   1.48514
 Alpha virt. eigenvalues --    1.49216   1.49838   1.50529   1.50785   1.51726
 Alpha virt. eigenvalues --    1.52117   1.52566   1.55049   1.55691   1.57123
 Alpha virt. eigenvalues --    1.58378   1.59590   1.60259   1.61003   1.62132
 Alpha virt. eigenvalues --    1.63487   1.64336   1.64650   1.65137   1.66908
 Alpha virt. eigenvalues --    1.67142   1.67316   1.67844   1.68408   1.69485
 Alpha virt. eigenvalues --    1.69683   1.69864   1.70550   1.71522   1.72665
 Alpha virt. eigenvalues --    1.73934   1.74381   1.75117   1.75998   1.76968
 Alpha virt. eigenvalues --    1.77490   1.78440   1.78947   1.80894   1.81712
 Alpha virt. eigenvalues --    1.83264   1.86747   1.87767   1.88033   1.89806
 Alpha virt. eigenvalues --    1.92561   1.93027   1.93586   1.93819   1.94313
 Alpha virt. eigenvalues --    1.95704   1.96770   1.98318   1.98588   1.98852
 Alpha virt. eigenvalues --    1.99779   2.00789   2.01341   2.01505   2.03346
 Alpha virt. eigenvalues --    2.04154   2.04523   2.04887   2.05666   2.06893
 Alpha virt. eigenvalues --    2.07635   2.08590   2.09272   2.09496   2.10615
 Alpha virt. eigenvalues --    2.10931   2.10954   2.11961   2.12248   2.13143
 Alpha virt. eigenvalues --    2.13233   2.13678   2.13777   2.14588   2.15068
 Alpha virt. eigenvalues --    2.15838   2.16025   2.16379   2.16818   2.17166
 Alpha virt. eigenvalues --    2.17892   2.18354   2.18845   2.18967   2.19168
 Alpha virt. eigenvalues --    2.19674   2.20173   2.20816   2.21366   2.21532
 Alpha virt. eigenvalues --    2.23417   2.25059   2.26265   2.26510   2.27299
 Alpha virt. eigenvalues --    2.29269   2.29487   2.29887   2.30933   2.31099
 Alpha virt. eigenvalues --    2.32054   2.32614   2.33650   2.34023   2.34411
 Alpha virt. eigenvalues --    2.34697   2.35229   2.35952   2.36326   2.37658
 Alpha virt. eigenvalues --    2.38058   2.38710   2.39395   2.39735   2.41026
 Alpha virt. eigenvalues --    2.41351   2.42132   2.43288   2.45322   2.45627
 Alpha virt. eigenvalues --    2.46132   2.46759   2.47765   2.48723   2.50546
 Alpha virt. eigenvalues --    2.50815   2.51272   2.53269   2.54737   2.57003
 Alpha virt. eigenvalues --    2.57340   2.60016   2.62999   2.64012   2.64208
 Alpha virt. eigenvalues --    2.64659   2.65992   2.66745   2.67135   2.67711
 Alpha virt. eigenvalues --    2.67873   2.68233   2.69107   2.69335   2.70049
 Alpha virt. eigenvalues --    2.70496   2.70694   2.71287   2.72515   2.72741
 Alpha virt. eigenvalues --    2.73118   2.73602   2.74394   2.74677   2.77030
 Alpha virt. eigenvalues --    2.77443   2.77740   2.78215   2.79603   2.79770
 Alpha virt. eigenvalues --    2.80611   2.80701   2.81823   2.83344   2.84480
 Alpha virt. eigenvalues --    2.85283   2.85490   2.86311   2.86669   2.87960
 Alpha virt. eigenvalues --    2.88475   2.88645   2.90073   2.90413   2.90894
 Alpha virt. eigenvalues --    2.91544   2.91928   2.92191   2.93316   2.93987
 Alpha virt. eigenvalues --    2.94133   2.94277   2.95004   2.96524   2.96845
 Alpha virt. eigenvalues --    2.97684   2.98254   2.98443   2.99041   2.99482
 Alpha virt. eigenvalues --    3.01243   3.02456   3.03333   3.04083   3.05044
 Alpha virt. eigenvalues --    3.07174   3.12797   3.19627   3.23968   3.26061
 Alpha virt. eigenvalues --    3.26454   3.27376   3.29242   3.30973   3.31158
 Alpha virt. eigenvalues --    3.35626   3.38291   3.38653   3.44392   3.45174
 Alpha virt. eigenvalues --    3.46336   3.47422   3.50558   3.50806   3.51853
 Alpha virt. eigenvalues --    3.52079   3.53866   3.54562   3.56250   3.57106
 Alpha virt. eigenvalues --    3.58141   3.58539   3.59643   3.60548   3.61765
 Alpha virt. eigenvalues --    3.62983   3.63502   3.64690   3.67201   5.86769
 Alpha virt. eigenvalues --    8.69420
  Beta  occ. eigenvalues -- -482.62358-101.65537-101.61321-101.60358-101.59731
  Beta  occ. eigenvalues -- -101.58135-101.56016 -61.70510 -56.27346 -56.27256
  Beta  occ. eigenvalues --  -56.27224 -19.20181 -14.54192 -14.43532 -14.43488
  Beta  occ. eigenvalues --  -14.40892 -14.38577 -14.38027 -14.34518 -10.35067
  Beta  occ. eigenvalues --  -10.34737 -10.33728 -10.32900 -10.32383 -10.32107
  Beta  occ. eigenvalues --  -10.31634 -10.31308 -10.30995 -10.30713 -10.29886
  Beta  occ. eigenvalues --  -10.28868 -10.28858 -10.28011 -10.27908 -10.27813
  Beta  occ. eigenvalues --  -10.26525 -10.26172 -10.26088 -10.22883  -9.58755
  Beta  occ. eigenvalues --   -9.54496  -9.53517  -9.52935  -9.51300  -9.49277
  Beta  occ. eigenvalues --   -8.48569  -7.35141  -7.34272  -7.34142  -7.30980
  Beta  occ. eigenvalues --   -7.29958  -7.29903  -7.29899  -7.29358  -7.28955
  Beta  occ. eigenvalues --   -7.28948  -7.28389  -7.28360  -7.27729  -7.26744
  Beta  occ. eigenvalues --   -7.26736  -7.25707  -7.24715  -7.24699  -6.49721
  Beta  occ. eigenvalues --   -6.49411  -6.49364  -3.77798  -2.61978  -2.61905
  Beta  occ. eigenvalues --   -2.61867  -2.61622  -2.61621  -2.46438  -2.46407
  Beta  occ. eigenvalues --   -2.46325  -2.15354  -1.12208  -1.10930  -1.08199
  Beta  occ. eigenvalues --   -1.07620  -1.05320  -1.00038  -0.97339  -0.95422
  Beta  occ. eigenvalues --   -0.94284  -0.92710  -0.92465  -0.91178  -0.89353
  Beta  occ. eigenvalues --   -0.89053  -0.88562  -0.87860  -0.86077  -0.83247
  Beta  occ. eigenvalues --   -0.81809  -0.81086  -0.77215  -0.76562  -0.75945
  Beta  occ. eigenvalues --   -0.75237  -0.74390  -0.73468  -0.70893  -0.68622
  Beta  occ. eigenvalues --   -0.66541  -0.66251  -0.64727  -0.64433  -0.62165
  Beta  occ. eigenvalues --   -0.61766  -0.61051  -0.60534  -0.60462  -0.59223
  Beta  occ. eigenvalues --   -0.58704  -0.57168  -0.56561  -0.56195  -0.54549
  Beta  occ. eigenvalues --   -0.54171  -0.53893  -0.52590  -0.52440  -0.51745
  Beta  occ. eigenvalues --   -0.50885  -0.50639  -0.50044  -0.49664  -0.49044
  Beta  occ. eigenvalues --   -0.48841  -0.48458  -0.47946  -0.47803  -0.47113
  Beta  occ. eigenvalues --   -0.47054  -0.46966  -0.46459  -0.46343  -0.46138
  Beta  occ. eigenvalues --   -0.45858  -0.45215  -0.44932  -0.44456  -0.43969
  Beta  occ. eigenvalues --   -0.43785  -0.43638  -0.43486  -0.43474  -0.42628
  Beta  occ. eigenvalues --   -0.42317  -0.42114  -0.42027  -0.41839  -0.41231
  Beta  occ. eigenvalues --   -0.40801  -0.40443  -0.39974  -0.38356  -0.38289
  Beta  occ. eigenvalues --   -0.38072  -0.37543  -0.37161  -0.36877  -0.36260
  Beta  occ. eigenvalues --   -0.35931  -0.34517  -0.34162  -0.33401  -0.33199
  Beta  occ. eigenvalues --   -0.32885  -0.30673  -0.29602  -0.28931  -0.27946
  Beta  occ. eigenvalues --   -0.26432  -0.26375  -0.25687  -0.25593  -0.22707
  Beta virt. eigenvalues --   -0.05356   0.00361   0.00873   0.01225   0.01288
  Beta virt. eigenvalues --    0.01904   0.05084   0.05509   0.05934   0.06402
  Beta virt. eigenvalues --    0.07382   0.07688   0.08594   0.09010   0.09361
  Beta virt. eigenvalues --    0.10452   0.10719   0.10854   0.11629   0.11932
  Beta virt. eigenvalues --    0.12519   0.12826   0.13360   0.13393   0.13564
  Beta virt. eigenvalues --    0.13644   0.13920   0.14172   0.14752   0.14820
  Beta virt. eigenvalues --    0.15816   0.15926   0.16048   0.16229   0.16768
  Beta virt. eigenvalues --    0.17415   0.18031   0.18818   0.19072   0.19219
  Beta virt. eigenvalues --    0.19616   0.20305   0.20699   0.20744   0.21349
  Beta virt. eigenvalues --    0.21711   0.21993   0.22544   0.22707   0.22837
  Beta virt. eigenvalues --    0.23729   0.24263   0.24327   0.24617   0.24700
  Beta virt. eigenvalues --    0.25823   0.25982   0.26488   0.26580   0.27020
  Beta virt. eigenvalues --    0.27343   0.27704   0.28298   0.28608   0.28866
  Beta virt. eigenvalues --    0.29383   0.30065   0.31123   0.31331   0.32204
  Beta virt. eigenvalues --    0.32602   0.32930   0.33069   0.33588   0.34726
  Beta virt. eigenvalues --    0.36153   0.37269   0.38113   0.38647   0.39674
  Beta virt. eigenvalues --    0.40121   0.40598   0.41883   0.42308   0.42815
  Beta virt. eigenvalues --    0.43727   0.43846   0.44531   0.45423   0.46743
  Beta virt. eigenvalues --    0.47215   0.47735   0.47813   0.48454   0.48980
  Beta virt. eigenvalues --    0.49576   0.49865   0.50107   0.50239   0.50887
  Beta virt. eigenvalues --    0.51316   0.51543   0.51847   0.52332   0.52515
  Beta virt. eigenvalues --    0.52766   0.53260   0.53690   0.54399   0.54889
  Beta virt. eigenvalues --    0.55621   0.55905   0.56306   0.56684   0.56899
  Beta virt. eigenvalues --    0.57792   0.58097   0.58557   0.59049   0.59669
  Beta virt. eigenvalues --    0.59993   0.60388   0.60853   0.61174   0.61569
  Beta virt. eigenvalues --    0.62113   0.62474   0.62798   0.63425   0.63860
  Beta virt. eigenvalues --    0.64471   0.64758   0.65129   0.65417   0.65936
  Beta virt. eigenvalues --    0.66110   0.66699   0.66823   0.67189   0.67367
  Beta virt. eigenvalues --    0.67641   0.68400   0.68556   0.68947   0.69622
  Beta virt. eigenvalues --    0.69968   0.70478   0.71018   0.71355   0.71418
  Beta virt. eigenvalues --    0.71826   0.72494   0.72625   0.73363   0.73742
  Beta virt. eigenvalues --    0.74136   0.74261   0.74656   0.75174   0.75893
  Beta virt. eigenvalues --    0.76717   0.77161   0.77346   0.78710   0.79230
  Beta virt. eigenvalues --    0.79427   0.80306   0.81140   0.81542   0.82130
  Beta virt. eigenvalues --    0.83287   0.83921   0.84211   0.84370   0.85518
  Beta virt. eigenvalues --    0.86290   0.86649   0.86985   0.87362   0.87714
  Beta virt. eigenvalues --    0.88104   0.88544   0.88976   0.89421   0.89751
  Beta virt. eigenvalues --    0.90199   0.90520   0.90887   0.91192   0.91405
  Beta virt. eigenvalues --    0.91580   0.91672   0.91965   0.92235   0.92323
  Beta virt. eigenvalues --    0.92446   0.92678   0.92985   0.93151   0.93350
  Beta virt. eigenvalues --    0.93809   0.94234   0.94742   0.95124   0.95191
  Beta virt. eigenvalues --    0.95314   0.95483   0.95938   0.96204   0.96686
  Beta virt. eigenvalues --    0.97103   0.97397   0.97643   0.98037   0.98380
  Beta virt. eigenvalues --    0.98503   0.99001   0.99297   0.99959   1.00146
  Beta virt. eigenvalues --    1.00479   1.00649   1.01496   1.01791   1.02364
  Beta virt. eigenvalues --    1.02671   1.02940   1.03324   1.03710   1.04047
  Beta virt. eigenvalues --    1.04589   1.05110   1.05221   1.05546   1.05998
  Beta virt. eigenvalues --    1.06271   1.06679   1.07671   1.08291   1.08481
  Beta virt. eigenvalues --    1.08850   1.09063   1.09447   1.10077   1.10222
  Beta virt. eigenvalues --    1.11180   1.11648   1.11836   1.13345   1.13477
  Beta virt. eigenvalues --    1.13939   1.14693   1.14985   1.16041   1.16163
  Beta virt. eigenvalues --    1.16911   1.17416   1.18141   1.18815   1.20030
  Beta virt. eigenvalues --    1.20697   1.21494   1.22280   1.23195   1.24620
  Beta virt. eigenvalues --    1.25064   1.25689   1.25982   1.27396   1.28163
  Beta virt. eigenvalues --    1.29402   1.30543   1.31280   1.32283   1.34080
  Beta virt. eigenvalues --    1.36120   1.36472   1.37389   1.38151   1.38426
  Beta virt. eigenvalues --    1.39874   1.40819   1.41927   1.42444   1.42710
  Beta virt. eigenvalues --    1.44503   1.45505   1.45948   1.46385   1.47759
  Beta virt. eigenvalues --    1.48195   1.48360   1.48571   1.49304   1.49888
  Beta virt. eigenvalues --    1.50646   1.50891   1.51777   1.52219   1.52607
  Beta virt. eigenvalues --    1.55210   1.55799   1.57220   1.58422   1.59698
  Beta virt. eigenvalues --    1.60307   1.61110   1.62178   1.63507   1.64350
  Beta virt. eigenvalues --    1.64744   1.65183   1.67010   1.67231   1.67378
  Beta virt. eigenvalues --    1.67900   1.68487   1.69553   1.69753   1.69940
  Beta virt. eigenvalues --    1.70660   1.71642   1.72684   1.74034   1.74488
  Beta virt. eigenvalues --    1.75147   1.76093   1.77103   1.77690   1.78571
  Beta virt. eigenvalues --    1.78980   1.80981   1.81918   1.83307   1.86830
  Beta virt. eigenvalues --    1.87803   1.88083   1.89810   1.92640   1.93107
  Beta virt. eigenvalues --    1.93615   1.93825   1.94380   1.95728   1.96805
  Beta virt. eigenvalues --    1.98324   1.98672   1.98858   1.99874   2.00961
  Beta virt. eigenvalues --    2.01482   2.01519   2.03494   2.04156   2.04654
  Beta virt. eigenvalues --    2.04901   2.05782   2.06896   2.07703   2.08694
  Beta virt. eigenvalues --    2.09275   2.09540   2.10621   2.10951   2.11012
  Beta virt. eigenvalues --    2.11986   2.12260   2.13182   2.13342   2.13691
  Beta virt. eigenvalues --    2.13800   2.14628   2.15105   2.15856   2.16092
  Beta virt. eigenvalues --    2.16423   2.16862   2.17184   2.17905   2.18372
  Beta virt. eigenvalues --    2.18861   2.18991   2.19181   2.19737   2.20177
  Beta virt. eigenvalues --    2.20873   2.21373   2.21598   2.23421   2.25102
  Beta virt. eigenvalues --    2.26305   2.26513   2.27411   2.29285   2.29534
  Beta virt. eigenvalues --    2.29965   2.30935   2.31156   2.32121   2.32631
  Beta virt. eigenvalues --    2.33698   2.34039   2.34456   2.34722   2.35244
  Beta virt. eigenvalues --    2.35994   2.36394   2.37754   2.38082   2.38743
  Beta virt. eigenvalues --    2.39413   2.39768   2.41077   2.41391   2.42226
  Beta virt. eigenvalues --    2.43355   2.45333   2.45693   2.46179   2.46770
  Beta virt. eigenvalues --    2.47783   2.48764   2.50551   2.50893   2.51291
  Beta virt. eigenvalues --    2.53270   2.54738   2.57067   2.57344   2.60023
  Beta virt. eigenvalues --    2.63045   2.64058   2.64224   2.64722   2.66022
  Beta virt. eigenvalues --    2.66822   2.67187   2.67734   2.67903   2.68297
  Beta virt. eigenvalues --    2.69110   2.69387   2.70128   2.70530   2.70731
  Beta virt. eigenvalues --    2.71365   2.72550   2.72792   2.73164   2.73671
  Beta virt. eigenvalues --    2.74458   2.74684   2.77077   2.77461   2.77826
  Beta virt. eigenvalues --    2.78249   2.79632   2.79823   2.80657   2.80717
  Beta virt. eigenvalues --    2.81825   2.83352   2.84512   2.85330   2.85516
  Beta virt. eigenvalues --    2.86321   2.86692   2.88001   2.88482   2.88707
  Beta virt. eigenvalues --    2.90079   2.90494   2.90921   2.91584   2.91965
  Beta virt. eigenvalues --    2.92206   2.93381   2.94004   2.94143   2.94331
  Beta virt. eigenvalues --    2.95010   2.96541   2.96848   2.97700   2.98300
  Beta virt. eigenvalues --    2.98535   2.99094   2.99483   3.01244   3.02456
  Beta virt. eigenvalues --    3.03338   3.04116   3.05087   3.07215   3.12884
  Beta virt. eigenvalues --    3.19673   3.24018   3.26061   3.26516   3.27376
  Beta virt. eigenvalues --    3.29242   3.30974   3.31166   3.35626   3.38291
  Beta virt. eigenvalues --    3.38653   3.44411   3.45177   3.46337   3.47422
  Beta virt. eigenvalues --    3.50558   3.50806   3.51858   3.52088   3.53867
  Beta virt. eigenvalues --    3.54575   3.56253   3.57109   3.58157   3.58569
  Beta virt. eigenvalues --    3.59643   3.60549   3.61789   3.63011   3.63508
  Beta virt. eigenvalues --    3.64711   3.67204   5.85920   8.69421
          Condensed to atoms (all electrons):
          Atomic-Atomic Spin Densities.
 Mulliken charges and spin densities:
               1          2
     1  Li   0.598417   0.000528
     2  N   -0.505287   0.001337
     3  C    0.064390   0.003805
     4  Cl   0.058035   0.001067
     5  N   -0.412139   0.001457
     6  C   -0.002996   0.006366
     7  Cl  -0.033068   0.001082
     8  N   -0.375244   0.003116
     9  C    0.013512   0.009866
    10  Cl  -0.035184   0.001295
    11  N   -0.489718   0.042651
    12  C    0.056871  -0.000854
    13  Cl   0.065623   0.000922
    14  N   -0.541417   0.064001
    15  C    0.032384  -0.005300
    16  Cl  -0.026919   0.000846
    17  N   -0.510202   0.048571
    18  C    0.021666  -0.002803
    19  Cl  -0.007272   0.000731
    20  C    0.246200   0.002704
    21  H    0.149417   0.000551
    22  C    0.180108   0.005559
    23  H    0.105177   0.000105
    24  C    0.184467   0.001984
    25  H    0.122725   0.000508
    26  Co   0.789371   2.727492
    27  C    0.224112   0.000798
    28  C   -0.050331   0.001182
    29  O   -0.624315   0.073543
    30  C   -0.324826   0.001946
    31  H    0.172372  -0.000222
    32  H    0.184461   0.000181
    33  H    0.113842  -0.000063
    34  H    0.113674  -0.000084
    35  H    0.133032   0.000894
    36  H    0.105983   0.002788
    37  N   -0.378332  -0.000004
    38  C   -0.073346   0.000017
    39  C   -0.341598  -0.000000
    40  H    0.194280   0.000041
    41  H    0.129573   0.000001
    42  H    0.143675   0.000000
    43  H    0.134027   0.000000
    44  H    0.112773   0.000000
    45  C   -0.063628  -0.000000
    46  C   -0.345541   0.000006
    47  H    0.142966   0.000000
    48  H    0.131653  -0.000000
    49  H    0.124668   0.000002
    50  H    0.154612   0.000000
    51  H    0.147760   0.000002
    52  C   -0.091050   0.000022
    53  C   -0.348418   0.000011
    54  H    0.189397   0.000039
    55  H    0.121960   0.000000
    56  H    0.142740   0.000003
    57  H    0.160651   0.000011
    58  H    0.121922   0.000004
    59  C   -0.074670   0.000042
    60  C   -0.344303   0.000006
    61  H    0.157902  -0.000005
    62  H    0.171727  -0.000005
    63  H    0.146962  -0.000003
    64  H    0.100732   0.000000
    65  H    0.151550  -0.000004
    66  Br  -0.617566   0.001264
 Sum of Mulliken charges =  -0.00000   3.00000
 Mulliken charges and spin densities with hydrogens summed into heavy atoms:
               1          2
     1  Li   0.598417   0.000528
     2  N   -0.505287   0.001337
     3  C    0.064390   0.003805
     4  Cl   0.058035   0.001067
     5  N   -0.412139   0.001457
     6  C   -0.002996   0.006366
     7  Cl  -0.033068   0.001082
     8  N   -0.375244   0.003116
     9  C    0.013512   0.009866
    10  Cl  -0.035184   0.001295
    11  N   -0.489718   0.042651
    12  C    0.056871  -0.000854
    13  Cl   0.065623   0.000922
    14  N   -0.541417   0.064001
    15  C    0.032384  -0.005300
    16  Cl  -0.026919   0.000846
    17  N   -0.510202   0.048571
    18  C    0.021666  -0.002803
    19  Cl  -0.007272   0.000731
    20  C    0.395617   0.003255
    22  C    0.285285   0.005664
    24  C    0.307192   0.002492
    26  Co   0.789371   2.727492
    27  C    0.330095   0.003586
    28  C    0.306502   0.001141
    29  O   -0.624315   0.073543
    30  C    0.035722   0.002693
    37  N   -0.378332  -0.000004
    38  C    0.250507   0.000059
    39  C    0.048878   0.000000
    45  C    0.210992  -0.000000
    46  C    0.081499   0.000010
    52  C    0.220307   0.000061
    53  C    0.076896   0.000029
    59  C    0.254958   0.000032
    60  C    0.054941  -0.000000
    66  Br  -0.617566   0.001264
 Electronic spatial extent (au):  <R**2>=          32467.3729
 Charge=             -0.0000 electrons
 Dipole moment (field-independent basis, Debye):
    X=              8.5295    Y=             -4.9822    Z=            -10.3794  Tot=             14.3285
 Quadrupole moment (field-independent basis, Debye-Ang):
   XX=           -292.2348   YY=           -153.8859   ZZ=           -272.0811
   XY=             62.4037   XZ=             -1.1977   YZ=             29.2960
 Traceless Quadrupole moment (field-independent basis, Debye-Ang):
   XX=            -52.8342   YY=             85.5147   ZZ=            -32.6805
   XY=             62.4037   XZ=             -1.1977   YZ=             29.2960
 Octapole moment (field-independent basis, Debye-Ang**2):
  XXX=           -557.1751  YYY=           -853.7878  ZZZ=             76.1242  XYY=             40.1276
  XXY=           -220.7234  XXZ=             57.6445  XZZ=           -359.3324  YZZ=           -628.5694
  YYZ=           -267.6638  XYZ=            -89.7162
 Hexadecapole moment (field-independent basis, Debye-Ang**3):
 XXXX=         -15301.6229 YYYY=         -14225.7797 ZZZZ=          -5728.0310 XXXY=          -3341.2844
 XXXZ=            -73.5487 YYYX=          -2127.1956 YYYZ=            580.9330 ZZZX=            -96.6521
 ZZZY=             88.2717 XXYY=          -4565.6120 XXZZ=          -3846.9909 YYZZ=          -3444.6802
 XXYZ=           -381.0089 YYXZ=           -101.4886 ZZXY=          -1565.0177
 N-N= 6.766486736028D+03 E-N=-2.949206253920D+04  KE= 6.651309673682D+03
  Exact polarizability:   0.000   0.000   0.000   0.000   0.000   0.000
 Approx polarizability: 415.922   8.265 438.044 -19.399  13.333 420.989
                          Isotropic Fermi Contact Couplings
        Atom                 a.u.       MegaHertz       Gauss      10(-4) cm-1
     1  Li(7)              0.00011       0.06459       0.02305       0.02155
     2  N(14)              0.00140       0.15060       0.05374       0.05024
     3  C(13)              0.00394       1.47546       0.52648       0.49216
     4  Cl(35)             0.00080       0.11663       0.04162       0.03891
     5  N(14)              0.00025       0.02721       0.00971       0.00908
     6  C(13)              0.00387       1.44961       0.51726       0.48354
     7  Cl(35)             0.00056       0.08126       0.02900       0.02711
     8  N(14)              0.00007       0.00728       0.00260       0.00243
     9  C(13)              0.00455       1.70550       0.60856       0.56889
    10  Cl(35)             0.00044       0.06391       0.02280       0.02132
    11  N(14)              0.06326       6.81351       2.43123       2.27274
    12  C(13)              0.00099       0.37024       0.13211       0.12350
    13  Cl(35)             0.00139       0.20256       0.07228       0.06757
    14  N(14)              0.06606       7.11455       2.53865       2.37316
    15  C(13)              0.00073       0.27271       0.09731       0.09096
    16  Cl(35)             0.00187       0.27321       0.09749       0.09113
    17  N(14)              0.06452       6.94859       2.47943       2.31780
    18  C(13)              0.00144       0.54057       0.19289       0.18031
    19  Cl(35)             0.00191       0.27895       0.09954       0.09305
    20  C(13)              0.00240       0.89842       0.32058       0.29968
    21  H(1)               0.00020       0.30040       0.10719       0.10020
    22  C(13)              0.00288       1.07796       0.38464       0.35957
    23  H(1)               0.00008       0.11741       0.04189       0.03916
    24  C(13)              0.00197       0.73733       0.26310       0.24595
    25  H(1)               0.00017       0.25926       0.09251       0.08648
    26  Co(59)             0.00000       0.00126       0.00045       0.00042
    27  C(13)              0.00116       0.43650       0.15575       0.14560
    28  C(13)             -0.00091      -0.34090      -0.12164      -0.11371
    29  O(17)              0.07209     -14.56776      -5.19814      -4.85928
    30  C(13)              0.00214       0.80224       0.28626       0.26760
    31  H(1)               0.00013       0.19663       0.07016       0.06559
    32  H(1)               0.00022       0.32313       0.11530       0.10778
    33  H(1)              -0.00001      -0.01498      -0.00534      -0.00500
    34  H(1)              -0.00001      -0.01337      -0.00477      -0.00446
    35  H(1)               0.00032       0.47642       0.17000       0.15892
    36  H(1)               0.00092       1.37646       0.49115       0.45914
    37  N(14)             -0.00000      -0.00047      -0.00017      -0.00016
    38  C(13)              0.00003       0.01262       0.00450       0.00421
    39  C(13)             -0.00000      -0.00016      -0.00006      -0.00005
    40  H(1)              -0.00000      -0.00247      -0.00088      -0.00082
    41  H(1)               0.00000       0.00069       0.00025       0.00023
    42  H(1)               0.00000       0.00006       0.00002       0.00002
    43  H(1)               0.00000       0.00011       0.00004       0.00004
    44  H(1)               0.00000       0.00025       0.00009       0.00008
    45  C(13)              0.00000       0.00009       0.00003       0.00003
    46  C(13)              0.00000       0.00113       0.00040       0.00038
    47  H(1)               0.00000       0.00006       0.00002       0.00002
    48  H(1)              -0.00000      -0.00005      -0.00002      -0.00002
    49  H(1)               0.00000       0.00086       0.00031       0.00029
    50  H(1)               0.00000       0.00049       0.00018       0.00017
    51  H(1)               0.00000       0.00094       0.00034       0.00031
    52  C(13)              0.00003       0.00948       0.00338       0.00316
    53  C(13)              0.00001       0.00508       0.00181       0.00170
    54  H(1)              -0.00000      -0.00286      -0.00102      -0.00096
    55  H(1)               0.00000       0.00003       0.00001       0.00001
    56  H(1)               0.00000       0.00035       0.00012       0.00012
    57  H(1)               0.00000       0.00033       0.00012       0.00011
    58  H(1)               0.00000       0.00211       0.00075       0.00070
    59  C(13)             -0.00001      -0.00380      -0.00135      -0.00127
    60  C(13)             -0.00000      -0.00053      -0.00019      -0.00018
    61  H(1)              -0.00000      -0.00264      -0.00094      -0.00088
    62  H(1)               0.00000       0.00026       0.00009       0.00009
    63  H(1)               0.00000       0.00170       0.00060       0.00057
    64  H(1)               0.00000       0.00062       0.00022       0.00021
    65  H(1)               0.00000       0.00337       0.00120       0.00112
    66  Br(79)             0.00042       0.15787       0.05633       0.05266
 --------------------------------------------------------
       Center         ----  Spin Dipole Couplings  ----
                      3XX-RR        3YY-RR        3ZZ-RR
 --------------------------------------------------------
     1   Atom       -0.001994      0.002064     -0.000070
     2   Atom       -0.007935      0.008788     -0.000853
     3   Atom       -0.003198      0.007945     -0.004747
     4   Atom       -0.002483      0.006305     -0.003822
     5   Atom       -0.001136      0.005208     -0.004072
     6   Atom        0.001343     -0.004071      0.002729
     7   Atom        0.001448     -0.001951      0.000503
     8   Atom        0.012183     -0.003948     -0.008235
     9   Atom        0.006120      0.004338     -0.010459
    10   Atom        0.005618      0.003079     -0.008696
    11   Atom       -0.065374      0.111196     -0.045822
    12   Atom       -0.009372      0.023378     -0.014006
    13   Atom       -0.006472      0.008432     -0.001960
    14   Atom        0.107073     -0.008147     -0.098926
    15   Atom        0.018950     -0.013954     -0.004997
    16   Atom        0.004379     -0.012467      0.008088
    17   Atom        0.015004     -0.022245      0.007241
    18   Atom        0.022486     -0.013854     -0.008631
    19   Atom        0.013478     -0.005628     -0.007850
    20   Atom       -0.014048      0.008125      0.005923
    21   Atom       -0.011740     -0.001900      0.013640
    22   Atom        0.006834     -0.000703     -0.006131
    23   Atom       -0.001235     -0.006833      0.008067
    24   Atom       -0.012031      0.011609      0.000421
    25   Atom       -0.012681      0.015993     -0.003313
    26   Atom       -0.016238      0.025244     -0.009006
    27   Atom        0.013106     -0.016529      0.003423
    28   Atom       -0.005046     -0.005285      0.010331
    29   Atom       -0.139166     -0.097576      0.236742
    30   Atom        0.002753     -0.006800      0.004048
    31   Atom       -0.012100      0.013412     -0.001312
    32   Atom       -0.006655     -0.003064      0.009719
    33   Atom        0.002958     -0.003791      0.000833
    34   Atom       -0.001846     -0.004932      0.006778
    35   Atom        0.002105     -0.003380      0.001275
    36   Atom        0.021541     -0.013513     -0.008028
    37   Atom       -0.000177      0.001585     -0.001408
    38   Atom       -0.000316      0.001284     -0.000968
    39   Atom       -0.000027      0.000615     -0.000588
    40   Atom       -0.000448      0.001477     -0.001028
    41   Atom       -0.000528      0.001386     -0.000859
    42   Atom       -0.000111      0.000543     -0.000432
    43   Atom        0.000202      0.000383     -0.000584
    44   Atom       -0.000037      0.000531     -0.000494
    45   Atom       -0.000016      0.000849     -0.000833
    46   Atom        0.000027      0.000616     -0.000643
    47   Atom        0.000200      0.000502     -0.000702
    48   Atom       -0.000205      0.000860     -0.000655
    49   Atom        0.000025      0.000367     -0.000392
    50   Atom        0.000422      0.000306     -0.000728
    51   Atom       -0.000344      0.000893     -0.000549
    52   Atom       -0.001179      0.003022     -0.001843
    53   Atom       -0.002289      0.004927     -0.002637
    54   Atom       -0.001368      0.003398     -0.002030
    55   Atom       -0.000944      0.002110     -0.001166
    56   Atom       -0.003228      0.006501     -0.003274
    57   Atom       -0.002876      0.006256     -0.003380
    58   Atom       -0.001595      0.003204     -0.001609
    59   Atom        0.000931      0.001142     -0.002073
    60   Atom        0.001298      0.000031     -0.001329
    61   Atom        0.001385      0.000957     -0.002342
    62   Atom        0.000911      0.002026     -0.002938
    63   Atom        0.002248     -0.000647     -0.001601
    64   Atom        0.000932      0.000012     -0.000945
    65   Atom        0.000942      0.000053     -0.000995
    66   Atom       -0.003377      0.011956     -0.008579
 --------------------------------------------------------
                        XY            XZ            YZ
 --------------------------------------------------------
     1   Atom        0.000593      0.000393      0.002856
     2   Atom        0.003039      0.002287      0.011475
     3   Atom        0.002366      0.002434      0.003245
     4   Atom        0.003149      0.002921      0.005125
     5   Atom        0.010880     -0.008192     -0.010087
     6   Atom        0.006203     -0.004350     -0.000963
     7   Atom        0.006967     -0.003212     -0.001954
     8   Atom       -0.013836     -0.009958      0.005124
     9   Atom       -0.001759     -0.000412     -0.001960
    10   Atom       -0.001447     -0.002875      0.000133
    11   Atom        0.030615      0.020847      0.078746
    12   Atom        0.017070     -0.003121     -0.000950
    13   Atom        0.012476     -0.007649     -0.008308
    14   Atom       -0.101155     -0.028739      0.010170
    15   Atom       -0.021851      0.016364     -0.005435
    16   Atom       -0.010932      0.017600     -0.005528
    17   Atom        0.083273     -0.084535     -0.063003
    18   Atom        0.001685     -0.021624     -0.005599
    19   Atom       -0.009655     -0.012002      0.002073
    20   Atom       -0.003191      0.000837      0.022021
    21   Atom       -0.003699     -0.006711      0.016789
    22   Atom       -0.014055     -0.019564      0.011437
    23   Atom       -0.009378     -0.014823      0.011955
    24   Atom        0.012485     -0.007761     -0.018490
    25   Atom        0.001527     -0.001522     -0.017338
    26   Atom       -0.196649      0.205890      0.092066
    27   Atom        0.011434      0.026982      0.008371
    28   Atom        0.007231      0.016058      0.017143
    29   Atom       -0.035129      0.082907     -0.048914
    30   Atom       -0.002330      0.010840     -0.002184
    31   Atom        0.010519      0.007429      0.019338
    32   Atom        0.001713      0.003262      0.009217
    33   Atom       -0.003662      0.007309     -0.002879
    34   Atom       -0.000660      0.005976     -0.001569
    35   Atom        0.000583      0.005263      0.000424
    36   Atom        0.009594      0.014965      0.003456
    37   Atom        0.001952     -0.000062     -0.000091
    38   Atom        0.001320      0.000216      0.000369
    39   Atom        0.000890      0.000191      0.000272
    40   Atom        0.001599      0.000504      0.000868
    41   Atom        0.000921      0.000121      0.000298
    42   Atom        0.000699      0.000231      0.000363
    43   Atom        0.000949      0.000244      0.000269
    44   Atom        0.000701      0.000077      0.000115
    45   Atom        0.001244     -0.000235     -0.000325
    46   Atom        0.001238     -0.000552     -0.000698
    47   Atom        0.001067     -0.000134     -0.000151
    48   Atom        0.000881     -0.000150     -0.000262
    49   Atom        0.000829     -0.000420     -0.000513
    50   Atom        0.001506     -0.000816     -0.000773
    51   Atom        0.001229     -0.000656     -0.001056
    52   Atom        0.001956     -0.000258     -0.000587
    53   Atom        0.001650      0.000085      0.000425
    54   Atom        0.002684     -0.000841     -0.001737
    55   Atom        0.001054     -0.000195     -0.000605
    56   Atom        0.000508     -0.000049     -0.000464
    57   Atom        0.003161      0.000669      0.002134
    58   Atom        0.000753      0.000111      0.000729
    59   Atom        0.003215      0.000021      0.000066
    60   Atom        0.001971      0.000288      0.000221
    61   Atom        0.003806     -0.000866     -0.000785
    62   Atom        0.004683      0.000888      0.001003
[...]
    23   Atom       -0.010329     -0.015830      0.012048
    24   Atom        0.011671     -0.007735     -0.016646
    25   Atom        0.001045     -0.001257     -0.017513
    26   Atom       -0.379830      0.651330      0.237317
    27   Atom        0.019013      0.029132      0.012991
    28   Atom        0.002644      0.006877      0.012133
    29   Atom       -0.165414      0.070505     -0.068666
    30   Atom       -0.003714      0.013380     -0.002494
    31   Atom        0.003661      0.003686      0.015992
    32   Atom        0.001273      0.002821      0.007304
    33   Atom       -0.004497      0.008730     -0.002402
    34   Atom       -0.001024      0.007464     -0.002241
    35   Atom        0.001107      0.005788      0.000768
    36   Atom        0.017106      0.014446      0.006244
    37   Atom        0.002014     -0.000125     -0.000204
    38   Atom        0.001367      0.000192      0.000343
    39   Atom        0.000928      0.000178      0.000260
    40   Atom        0.001682      0.000483      0.000873
    41   Atom        0.000935      0.000100      0.000254
    42   Atom        0.000729      0.000225      0.000365
    43   Atom        0.000999      0.000231      0.000259
    44   Atom        0.000723      0.000065      0.000098
    45   Atom        0.001264     -0.000273     -0.000391
    46   Atom        0.001233     -0.000586     -0.000751
    47   Atom        0.001094     -0.000163     -0.000191
    48   Atom        0.000887     -0.000173     -0.000313
    49   Atom        0.000826     -0.000441     -0.000538
    50   Atom        0.001516     -0.000877     -0.000840
    51   Atom        0.001183     -0.000673     -0.001099
    52   Atom        0.001927     -0.000319     -0.000779
    53   Atom        0.001730      0.000020      0.000096
    54   Atom        0.002462     -0.000891     -0.001950
    55   Atom        0.001004     -0.000197     -0.000672
    56   Atom        0.000206     -0.000031     -0.000885
    57   Atom        0.004166      0.000437      0.001463
    58   Atom        0.000930      0.000149      0.000893
    59   Atom        0.003396     -0.000155     -0.000087
    60   Atom        0.002097      0.000174      0.000132
    61   Atom        0.004094     -0.001083     -0.001041
    62   Atom        0.004979      0.000769      0.000849
    63   Atom        0.002180      0.000225      0.000102
    64   Atom        0.001444     -0.000094     -0.000069
    65   Atom        0.001707      0.000532      0.000404
    66   Atom        0.007500      0.001373      0.004429
 --------------------------------------------------------


 ---------------------------------------------------------------------------------
              Anisotropic Spin Dipole Couplings in Principal Axis System
 ---------------------------------------------------------------------------------

       Atom             a.u.   MegaHertz   Gauss  10(-4) cm-1        Axes

              Baa    -0.0020    -0.418    -0.149    -0.140  0.9246 -0.3042  0.2294
     1 Li(7)  Bbb    -0.0020    -0.411    -0.147    -0.137 -0.3603 -0.5022  0.7861
              Bcc     0.0040     0.829     0.296     0.277  0.1240  0.8095  0.5739
 
              Baa    -0.0086    -0.332    -0.118    -0.111  0.9957 -0.0694 -0.0620
     2 N(14)  Bbb    -0.0078    -0.302    -0.108    -0.101  0.0154 -0.5344  0.8451
              Bcc     0.0164     0.634     0.226     0.212  0.0918  0.8423  0.5311
 
              Baa    -0.0063    -0.839    -0.299    -0.280 -0.5618 -0.0929  0.8221
     3 C(13)  Bbb    -0.0030    -0.399    -0.142    -0.133  0.7919 -0.3478  0.5019
              Bcc     0.0092     1.238     0.442     0.413  0.2393  0.9330  0.2689
 
              Baa    -0.0062    -0.326    -0.116    -0.109 -0.4021 -0.2450  0.8822
     4 Cl(35) Bbb    -0.0034    -0.178    -0.064    -0.059  0.8633 -0.4225  0.2762
              Bcc     0.0096     0.504     0.180     0.168  0.3051  0.8726  0.3814
 
              Baa    -0.0096    -0.370    -0.132    -0.124  0.5777  0.0226  0.8160
     5 N(14)  Bbb    -0.0085    -0.328    -0.117    -0.110 -0.6008  0.6885  0.4063
              Bcc     0.0181     0.699     0.249     0.233  0.5526  0.7249 -0.4113
 
              Baa    -0.0078    -1.048    -0.374    -0.350 -0.5819  0.7969 -0.1619
     6 C(13)  Bbb    -0.0006    -0.086    -0.031    -0.029  0.4377  0.4748  0.7635
              Bcc     0.0085     1.134     0.405     0.378  0.6854  0.3734 -0.6252
 
              Baa    -0.0064    -0.337    -0.120    -0.112 -0.6005  0.7972 -0.0617
     7 Cl(35) Bbb    -0.0017    -0.087    -0.031    -0.029  0.2830  0.2841  0.9161
              Bcc     0.0081     0.424     0.151     0.142  0.7478  0.5327 -0.3963
 
              Baa    -0.0120    -0.462    -0.165    -0.154  0.4726  0.8812  0.0139
     8 N(14)  Bbb    -0.0098    -0.379    -0.135    -0.127  0.2777 -0.1638  0.9466
              Bcc     0.0218     0.841     0.300     0.281  0.8364 -0.4435 -0.3221
 
              Baa    -0.0089    -1.189    -0.424    -0.396  0.0174  0.1106  0.9937
     9 C(13)  Bbb     0.0006     0.083     0.030     0.028  0.5155  0.8506 -0.1037
              Bcc     0.0082     1.106     0.395     0.369  0.8567 -0.5140  0.0423
 
              Baa    -0.0080    -0.417    -0.149    -0.139  0.1111  0.0472  0.9927
    10 Cl(35) Bbb    -0.0004    -0.019    -0.007    -0.006  0.4763  0.8741 -0.0949
              Bcc     0.0083     0.437     0.156     0.146  0.8722 -0.4834 -0.0746
 
              Baa    -0.0790    -3.046    -1.087    -1.016 -0.5525 -0.2430  0.7973
    11 N(14)  Bbb    -0.0643    -2.481    -0.885    -0.828  0.8120 -0.3729  0.4490
              Bcc     0.1433     5.527     1.972     1.844  0.1882  0.8955  0.4034
 
              Baa    -0.0173    -2.325    -0.830    -0.775  0.8206 -0.3571  0.4463
    12 C(13)  Bbb    -0.0118    -1.586    -0.566    -0.529 -0.3993  0.2004  0.8946
              Bcc     0.0291     3.911     1.396     1.305  0.4089  0.9123 -0.0218
 
              Baa    -0.0136    -0.712    -0.254    -0.237  0.8579 -0.2984  0.4182
    13 Cl(35) Bbb    -0.0060    -0.316    -0.113    -0.105 -0.1965  0.5614  0.8039
              Bcc     0.0196     1.027     0.367     0.343  0.4747  0.7718 -0.4230
 
              Baa    -0.0923    -3.561    -1.270    -1.188  0.1372  0.0651  0.9884
    14 N(14)  Bbb    -0.0665    -2.564    -0.915    -0.855  0.4817  0.8675 -0.1239
              Bcc     0.1588     6.125     2.185     2.043  0.8655 -0.4932 -0.0877
 
              Baa    -0.0230    -3.091    -1.103    -1.031  0.4977  0.8515 -0.1651
    15 C(13)  Bbb    -0.0121    -1.623    -0.579    -0.541 -0.2754  0.3356  0.9008
              Bcc     0.0351     4.714     1.682     1.572  0.8225 -0.4029  0.4015
 
              Baa    -0.0151    -0.788    -0.281    -0.263  0.5127  0.8468 -0.1413
    16 Cl(35) Bbb    -0.0077    -0.401    -0.143    -0.134 -0.5868  0.4658  0.6623
              Bcc     0.0227     1.189     0.424     0.396  0.6267 -0.2567  0.7358
 
              Baa    -0.0823    -3.174    -1.133    -1.059 -0.6840  0.7189 -0.1238
    17 N(14)  Bbb    -0.0638    -2.461    -0.878    -0.821  0.3645  0.4838  0.7957
              Bcc     0.1461     5.635     2.011     1.880  0.6319  0.4991 -0.5929
 
              Baa    -0.0196    -2.633    -0.939    -0.878  0.3421  0.5676  0.7489
    18 C(13)  Bbb    -0.0110    -1.483    -0.529    -0.495 -0.3373  0.8180 -0.4659
              Bcc     0.0307     4.116     1.469     1.373  0.8770  0.0932 -0.4713
 
              Baa    -0.0133    -0.697    -0.249    -0.232  0.4087  0.1473  0.9007
    19 Cl(35) Bbb    -0.0065    -0.341    -0.122    -0.114  0.2999  0.9104 -0.2850
              Bcc     0.0198     1.038     0.370     0.346  0.8620 -0.3866 -0.3280
 
              Baa    -0.0158    -2.124    -0.758    -0.708  0.5648  0.5892 -0.5778
    20 C(13)  Bbb    -0.0130    -1.750    -0.624    -0.584  0.8220 -0.3398  0.4570
              Bcc     0.0289     3.874     1.382     1.292 -0.0729  0.7331  0.6762
 
              Baa    -0.0131    -7.003    -2.499    -2.336  0.8024 -0.4048  0.4386
    21 H(1)   Bbb    -0.0121    -6.456    -2.304    -2.154  0.5656  0.7504 -0.3421
              Bcc     0.0252    13.459     4.803     4.490 -0.1906  0.5225  0.8310
 
              Baa    -0.0182    -2.444    -0.872    -0.815  0.5430 -0.0332  0.8391
    22 C(13)  Bbb    -0.0131    -1.761    -0.628    -0.588  0.4150  0.8792 -0.2338
              Bcc     0.0313     4.206     1.501     1.403  0.7300 -0.4752 -0.4912
 
              Baa    -0.0144    -7.705    -2.749    -2.570  0.4330  0.8836 -0.1782
    23 H(1)   Bbb    -0.0126    -6.731    -2.402    -2.245  0.6948 -0.2013  0.6904
              Bcc     0.0271    14.436     5.151     4.815 -0.5742  0.4228  0.7011
 
              Baa    -0.0169    -2.263    -0.807    -0.755  0.9379 -0.3329  0.0973
    24 C(13)  Bbb    -0.0114    -1.530    -0.546    -0.511  0.1103  0.5524  0.8262
              Bcc     0.0283     3.793     1.353     1.265  0.3288  0.7642 -0.5549
 
              Baa    -0.0134    -7.152    -2.552    -2.386  0.5437  0.4310  0.7202
    25 H(1)   Bbb    -0.0123    -6.566    -2.343    -2.190  0.8383 -0.3204 -0.4411
              Bcc     0.0257    13.718     4.895     4.576  0.0406  0.8436 -0.5355
 
              Baa    -0.9138  -115.400   -41.178   -38.493  0.7016  0.5722 -0.4247
    26 Co(59) Bbb     0.0404     5.102     1.820     1.702 -0.4942  0.8201  0.2884
              Bcc     0.8734   110.298    39.357    36.792  0.5134  0.0076  0.8581
 
              Baa    -0.0249    -3.339    -1.192    -1.114 -0.6221  0.7089  0.3322
    27 C(13)  Bbb    -0.0206    -2.770    -0.988    -0.924 -0.2996 -0.6076  0.7356
              Bcc     0.0455     6.109     2.180     2.038  0.7233  0.3582  0.5904
 
              Baa    -0.0112    -1.498    -0.535    -0.500 -0.4872 -0.5754  0.6569
    28 C(13)  Bbb    -0.0059    -0.787    -0.281    -0.263  0.8188 -0.5626  0.1145
              Bcc     0.0170     2.285     0.816     0.762  0.3037  0.5936  0.7452
 
              Baa    -0.2687    19.444     6.938     6.486  0.7593  0.6504 -0.0188
    29 O(17)  Bbb     0.0147    -1.061    -0.379    -0.354 -0.5705  0.6793  0.4616
              Bcc     0.2541   -18.383    -6.560    -6.132  0.3130 -0.3397  0.8869
 
              Baa    -0.0098    -1.315    -0.469    -0.439  0.6380  0.4551 -0.6212
    30 C(13)  Bbb    -0.0085    -1.135    -0.405    -0.379 -0.1896  0.8747  0.4460
              Bcc     0.0183     2.450     0.874     0.817  0.7463 -0.1668  0.6444
 
              Baa    -0.0118    -6.285    -2.242    -2.096  0.8675  0.2037 -0.4539
    31 H(1)   Bbb    -0.0106    -5.676    -2.025    -1.893  0.4730 -0.6206  0.6254
              Bcc     0.0224    11.961     4.268     3.990  0.1543  0.7572  0.6347
 
              Baa    -0.0066    -3.506    -1.251    -1.169  0.1660  0.8778 -0.4494
    32 H(1)   Bbb    -0.0062    -3.294    -1.175    -1.099  0.9721 -0.2223 -0.0750
              Bcc     0.0127     6.799     2.426     2.268  0.1658  0.4244  0.8902
 
              Baa    -0.0072    -3.861    -1.378    -1.288  0.5387  0.6753 -0.5038
    33 H(1)   Bbb    -0.0064    -3.402    -1.214    -1.135 -0.2235  0.6911  0.6873
              Bcc     0.0136     7.263     2.592     2.423  0.8123 -0.2577  0.5233
 
              Baa    -0.0060    -3.219    -1.148    -1.074 -0.4865  0.7641  0.4236
    34 H(1)   Bbb    -0.0054    -2.906    -1.037    -0.969  0.7077  0.6290 -0.3219
              Bcc     0.0115     6.125     2.185     2.043  0.5124 -0.1432  0.8467
 
              Baa    -0.0041    -2.196    -0.784    -0.733 -0.6258  0.3232  0.7099
    35 H(1)   Bbb    -0.0038    -2.016    -0.719    -0.673  0.1206  0.9392 -0.3214
              Bcc     0.0079     4.212     1.503     1.405  0.7706  0.1155  0.6267
 
              Baa    -0.0173    -9.254    -3.302    -3.087 -0.5094  0.8163  0.2724
    36 H(1)   Bbb    -0.0148    -7.910    -2.823    -2.639 -0.1804 -0.4108  0.8937
              Bcc     0.0322    17.164     6.124     5.725  0.8414  0.4061  0.3565
 
              Baa    -0.0015    -0.058    -0.021    -0.019  0.8429 -0.5337 -0.0679
    37 N(14)  Bbb    -0.0015    -0.057    -0.020    -0.019  0.0862  0.0093  0.9962
              Bcc     0.0030     0.115     0.041     0.038  0.5311  0.8456 -0.0539
 
              Baa    -0.0011    -0.149    -0.053    -0.050  0.8602 -0.4296 -0.2749
    38 C(13)  Bbb    -0.0011    -0.146    -0.052    -0.049  0.1881 -0.2337  0.9539
              Bcc     0.0022     0.295     0.105     0.098  0.4741  0.8722  0.1202
 
              Baa    -0.0007    -0.092    -0.033    -0.031  0.8296 -0.5316 -0.1706
    39 C(13)  Bbb    -0.0007    -0.091    -0.032    -0.030  0.0563 -0.2243  0.9729
              Bcc     0.0014     0.183     0.065     0.061  0.5554  0.8168  0.1562
 
              Baa    -0.0014    -0.768    -0.274    -0.256  0.8806 -0.4071 -0.2426
    40 H(1)   Bbb    -0.0014    -0.746    -0.266    -0.249  0.1082 -0.3256  0.9393
              Bcc     0.0028     1.514     0.540     0.505  0.4614  0.8534  0.2426
 
              Baa    -0.0009    -0.504    -0.180    -0.168  0.8769 -0.2965 -0.3783
    41 H(1)   Bbb    -0.0009    -0.500    -0.179    -0.167  0.3227 -0.2201  0.9206
              Bcc     0.0019     1.004     0.358     0.335  0.3562  0.9293  0.0973
 
              Baa    -0.0006    -0.312    -0.111    -0.104  0.8580 -0.4502 -0.2474
    42 H(1)   Bbb    -0.0006    -0.309    -0.110    -0.103  0.0895 -0.3431  0.9350
              Bcc     0.0012     0.621     0.222     0.207  0.5058  0.8244  0.2541
 
              Baa    -0.0007    -0.370    -0.132    -0.124  0.7573 -0.6385 -0.1372
    43 H(1)   Bbb    -0.0007    -0.366    -0.131    -0.122 -0.0077 -0.2188  0.9757
              Bcc     0.0014     0.736     0.263     0.246  0.6530  0.7379  0.1706
 
              Baa    -0.0005    -0.283    -0.101    -0.094  0.8333 -0.5306 -0.1551
    44 H(1)   Bbb    -0.0005    -0.281    -0.100    -0.094  0.0902 -0.1464  0.9851
              Bcc     0.0011     0.564     0.201     0.188  0.5454  0.8349  0.0741
 
              Baa    -0.0009    -0.125    -0.044    -0.042  0.8254 -0.5592  0.0774
    45 C(13)  Bbb    -0.0009    -0.123    -0.044    -0.041  0.0353  0.1880  0.9815
              Bcc     0.0018     0.248     0.089     0.083  0.5634  0.8074 -0.1749
 
              Baa    -0.0010    -0.130    -0.046    -0.043 -0.5586  0.6714  0.4870
    46 C(13)  Bbb    -0.0010    -0.129    -0.046    -0.043  0.5949 -0.0849  0.7993
              Bcc     0.0019     0.259     0.092     0.086  0.5780  0.7362 -0.3520
 
              Baa    -0.0008    -0.401    -0.143    -0.134  0.7590 -0.6507 -0.0231
    47 H(1)   Bbb    -0.0007    -0.396    -0.141    -0.132  0.0910  0.0709  0.9933
              Bcc     0.0015     0.797     0.284     0.266  0.6447  0.7560 -0.1131
 
              Baa    -0.0007    -0.385    -0.137    -0.128  0.8786 -0.4555  0.1436
    48 H(1)   Bbb    -0.0007    -0.383    -0.137    -0.128 -0.0474  0.2161  0.9752
              Bcc     0.0014     0.768     0.274     0.256  0.4753  0.8636 -0.1683
 
              Baa    -0.0007    -0.351    -0.125    -0.117  0.8074 -0.5560  0.1975
    49 H(1)   Bbb    -0.0007    -0.350    -0.125    -0.117  0.0711  0.4239  0.9029
              Bcc     0.0013     0.702     0.250     0.234  0.5857  0.7149 -0.3818
 
              Baa    -0.0012    -0.629    -0.224    -0.210  0.7059 -0.3907  0.5908
    50 H(1)   Bbb    -0.0012    -0.623    -0.222    -0.208 -0.2355  0.6572  0.7160
              Bcc     0.0023     1.252     0.447     0.418  0.6681  0.6445 -0.3719
 
              Baa    -0.0011    -0.585    -0.209    -0.195  0.4887  0.1849  0.8526
    51 H(1)   Bbb    -0.0011    -0.583    -0.208    -0.195  0.7354 -0.6131 -0.2886
              Bcc     0.0022     1.169     0.417     0.390  0.4694  0.7680 -0.4356
 
              Baa    -0.0020    -0.272    -0.097    -0.091  0.9011 -0.2883  0.3239
    52 C(13)  Bbb    -0.0019    -0.261    -0.093    -0.087 -0.2587  0.2422  0.9351
              Bcc     0.0040     0.532     0.190     0.178  0.3481  0.9264 -0.1436
 
              Baa    -0.0030    -0.400    -0.143    -0.134 -0.1926  0.0278  0.9809
    53 C(13)  Bbb    -0.0030    -0.400    -0.143    -0.133  0.9612 -0.1958  0.1943
              Bcc     0.0060     0.800     0.285     0.267  0.1974  0.9803  0.0110
 
              Baa    -0.0025    -1.352    -0.482    -0.451  0.8191 -0.1639  0.5498
    54 H(1)   Bbb    -0.0024    -1.299    -0.463    -0.433 -0.4315  0.4555  0.7786
              Bcc     0.0050     2.651     0.946     0.884  0.3781  0.8750 -0.3024
 
              Baa    -0.0013    -0.691    -0.247    -0.231  0.8476 -0.1469  0.5099
    55 H(1)   Bbb    -0.0013    -0.689    -0.246    -0.230 -0.4544  0.2955  0.8404
              Bcc     0.0026     1.380     0.492     0.460  0.2741  0.9440 -0.1837
 
              Baa    -0.0031    -1.678    -0.599    -0.560  0.3624  0.0802  0.9286
    56 H(1)   Bbb    -0.0031    -1.660    -0.592    -0.554  0.9318 -0.0549 -0.3589
              Bcc     0.0063     3.338     1.191     1.114  0.0222  0.9953 -0.0946
 
              Baa    -0.0053    -2.839    -1.013    -0.947  0.9331 -0.2402 -0.2677
    57 H(1)   Bbb    -0.0053    -2.803    -1.000    -0.935  0.2329 -0.1638  0.9586
              Bcc     0.0106     5.642     2.013     1.882  0.2741  0.9568  0.0969
 
              Baa    -0.0021    -1.099    -0.392    -0.366  0.7701 -0.0251 -0.6375
    58 H(1)   Bbb    -0.0020    -1.090    -0.389    -0.364  0.6189 -0.2133  0.7560
              Bcc     0.0041     2.189     0.781     0.730  0.1549  0.9767  0.1487
 
              Baa    -0.0024    -0.316    -0.113    -0.105  0.7110 -0.6666  0.2238
    59 C(13)  Bbb    -0.0021    -0.283    -0.101    -0.095 -0.1451  0.1723  0.9743
              Bcc     0.0045     0.599     0.214     0.200  0.6880  0.7252 -0.0258
 
              Baa    -0.0015    -0.199    -0.071    -0.066 -0.5865  0.8050 -0.0896
    60 C(13)  Bbb    -0.0014    -0.194    -0.069    -0.065 -0.0934  0.0427  0.9947
              Bcc     0.0029     0.392     0.140     0.131  0.8045  0.5918  0.0502
 
              Baa    -0.0029    -1.538    -0.549    -0.513 -0.7008  0.7124 -0.0376
    61 H(1)   Bbb    -0.0027    -1.445    -0.516    -0.482  0.1055  0.1556  0.9822
              Bcc     0.0056     2.983     1.064     0.995  0.7055  0.6844 -0.1842
 
              Baa    -0.0035    -1.841    -0.657    -0.614  0.7569 -0.6208 -0.2042
    62 H(1)   Bbb    -0.0033    -1.764    -0.629    -0.588  0.0826 -0.2190  0.9722
              Bcc     0.0068     3.605     1.286     1.203  0.6483  0.7528  0.1145
 
              Baa    -0.0018    -0.967    -0.345    -0.323 -0.4579  0.8710  0.1778
    63 H(1)   Bbb    -0.0017    -0.931    -0.332    -0.310  0.0407 -0.1792  0.9830
              Bcc     0.0036     1.898     0.677     0.633  0.8881  0.4573  0.0466
 
              Baa    -0.0010    -0.548    -0.195    -0.183 -0.5776  0.8124  0.0803
    64 H(1)   Bbb    -0.0010    -0.536    -0.191    -0.179  0.0779 -0.0430  0.9960
              Bcc     0.0020     1.083     0.387     0.361  0.8126  0.5815 -0.0384
 
              Baa    -0.0012    -0.656    -0.234    -0.219 -0.6257  0.7666  0.1445
    65 H(1)   Bbb    -0.0012    -0.640    -0.228    -0.213 -0.0571 -0.2298  0.9716
              Bcc     0.0024     1.295     0.462     0.432  0.7780  0.5997  0.1875
 
              Baa    -0.0086    -1.157    -0.413    -0.386  0.9082 -0.4013  0.1191
    66 Br(79) Bbb    -0.0053    -0.711    -0.254    -0.237 -0.2063 -0.1813  0.9616
              Bcc     0.0139     1.868     0.666     0.623  0.3643  0.8978  0.2474
 

 ---------------------------------------------------------------------------------


 This type of calculation cannot be archived.


 LIFE CAN ONLY BE UNDERSTOOD BACKWARD, BUT MUST
 BE LIVED FORWARD. -- KIRKEGAARD
 Job cpu time:      48 days 17 hours 10 minutes 14.0 seconds.
 Elapsed time:       0 days 19 hours 32 minutes 52.4 seconds.
 File lengths (MBytes):  RWF=   7453 Int=      0 D2E=      0 Chk=     58 Scr=      2
 Normal termination of Gaussian 16 at Tue Mar  7 13:10:13 2023.
