 Entering Gaussian System, Link 0=g16
 Input=IRC_8.com
 Output=IRC_8.log
 Initial command:
 /opt/ohpc/pub/apps/gaussian/avx2/g16/l1.exe "/scratch/g16-tmp/Gau-100949.inp" -scrdir="/scratch/g16-tmp/"
 Entering Link 1 = /opt/ohpc/pub/apps/gaussian/avx2/g16/l1.exe PID=    100950.
  
 Copyright (c) 1988-2017, Gaussian, Inc.  All Rights Reserved.
  
 This is part of the Gaussian(R) 16 program.  It is based on
 the Gaussian(R) 09 system (copyright 2009, Gaussian, Inc.),
 the Gaussian(R) 03 system (copyright 2003, Gaussian, Inc.),
 the Gaussian(R) 98 system (copyright 1998, Gaussian, Inc.),
 the Gaussian(R) 94 system (copyright 1995, Gaussian, Inc.),
 the Gaussian 92(TM) system (copyright 1992, Gaussian, Inc.),
 the Gaussian 90(TM) system (copyright 1990, Gaussian, Inc.),
 the Gaussian 88(TM) system (copyright 1988, Gaussian, Inc.),
 the Gaussian 86(TM) system (copyright 1986, Carnegie Mellon
 University), and the Gaussian 82(TM) system (copyright 1983,
 Carnegie Mellon University). Gaussian is a federally registered
 trademark of Gaussian, Inc.
  
 This software contains proprietary and confidential information,
 including trade secrets, belonging to Gaussian, Inc.
  
 This software is provided under written license and may be
 used, copied, transmitted, or stored only in accord with that
 written license.
  
 The following legend is applicable only to US Government
 contracts under FAR:
  
                    RESTRICTED RIGHTS LEGEND
  
 Use, reproduction and disclosure by the US Government is
 subject to restrictions as set forth in subparagraphs (a)
 and (c) of the Commercial Computer Software - Restricted
 Rights clause in FAR 52.227-19.
  
 Gaussian, Inc.
 340 Quinnipiac St., Bldg. 40, Wallingford CT 06492
  
  
 ---------------------------------------------------------------
 Warning -- This program may not be used in any manner that
 competes with the business of Gaussian, Inc. or will provide
 assistance to any competitor of Gaussian, Inc.  The licensee
 of this program is prohibited from giving any competitor of
 Gaussian, Inc. access to this program.  By using this program,
 the user acknowledges that Gaussian, Inc. is engaged in the
 business of creating and licensing software in the field of
 computational chemistry and represents and warrants to the
 licensee that it is not a competitor of Gaussian, Inc. and that
 it will not use this program in any manner prohibited above.
 ---------------------------------------------------------------
  

 Cite this work as:
 Gaussian 16, Revision B.01,
 M. J. Frisch, G. W. Trucks, H. B. Schlegel, G. E. Scuseria, 
 M. A. Robb, J. R. Cheeseman, G. Scalmani, V. Barone, 
 G. A. Petersson, H. Nakatsuji, X. Li, M. Caricato, A. V. Marenich, 
 J. Bloino, B. G. Janesko, R. Gomperts, B. Mennucci, H. P. Hratchian, 
 J. V. Ortiz, A. F. Izmaylov, J. L. Sonnenberg, D. Williams-Young, 
 F. Ding, F. Lipparini, F. Egidi, J. Goings, B. Peng, A. Petrone, 
 T. Henderson, D. Ranasinghe, V. G. Zakrzewski, J. Gao, N. Rega, 
 G. Zheng, W. Liang, M. Hada, M. Ehara, K. Toyota, R. Fukuda, 
 J. Hasegawa, M. Ishida, T. Nakajima, Y. Honda, O. Kitao, H. Nakai, 
 T. Vreven, K. Throssell, J. A. Montgomery, Jr., J. E. Peralta, 
 F. Ogliaro, M. J. Bearpark, J. J. Heyd, E. N. Brothers, K. N. Kudin, 
 V. N. Staroverov, T. A. Keith, R. Kobayashi, J. Normand, 
 K. Raghavachari, A. P. Rendell, J. C. Burant, S. S. Iyengar, 
 J. Tomasi, M. Cossi, J. M. Millam, M. Klene, C. Adamo, R. Cammi, 
 J. W. Ochterski, R. L. Martin, K. Morokuma, O. Farkas, 
 J. B. Foresman, and D. J. Fox, Gaussian, Inc., Wallingford CT, 2016.
 
 ******************************************
 Gaussian 16:  ES64L-G16RevB.01 20-Dec-2017
                 6-Mar-2023 
 ******************************************
 %nprocshared=64
 Will use up to   64 processors via shared memory.
 %mem=64GB
 %chk=IRC_8.chk
 ----------------------------------------------------------------------
 # irc=(calcfc,maxpoints=120,recalc=3) ucam-b3lyp/gen nosymm scf=(qc,ma
 xcycle=1024,vshift=100) pseudo=read
 ----------------------------------------------------------------------
 1/10=4,18=10,26=3,38=1,42=120,44=3,71=3,172=1/1,23;
 2/12=2,15=1,17=6,18=5,29=1,40=1/2;
 3/5=7,11=2,16=1,17=8,25=1,30=1,71=2,74=-40,116=2,140=1/1,2,3;
 4//1;
 5/5=2,7=1024,8=3,10=100,38=5/8;
 8/6=4,10=90,11=11/1;
 11/6=1,8=1,9=11,15=111,16=1,31=1/1,2,10;
 10/6=1,13=1,31=1/2;
 6/7=2,8=2,9=2,10=2,28=1/1;
 7/10=1,18=20,25=1,30=1/1,2,3,16;
 1/10=4,18=10,26=3,42=120,44=3,71=3/23(2);
 2/15=1,29=1/2;
 99/5=20/99;
 2/15=1,29=1/2;
 3/5=7,6=1,11=2,16=1,17=8,25=1,30=1,71=2,74=-40,82=7,116=2,140=1/1,2,3;
 4/5=5,16=3,69=1/1;
 5/5=2,7=1024,8=3,10=100,38=5/8;
 8/6=4,10=90,11=11/1;
 11/6=1,8=1,9=11,15=111,16=1,31=1/1,2,10;
 10/6=1,13=1,31=1/2;
 7/10=1,18=20,25=1,30=1/1,2,3,16;
 1/18=10,26=3,42=120,44=3,71=3/23(-8);
 2/15=1,29=1/2;
 6/7=2,8=2,9=2,10=2,19=2,28=1/1;
 99/5=20,9=1/99;
 -----
 IRC_8
 -----
 Symbolic Z-matrix:
 Charge =  0 Multiplicity = 4
 Li                   -1   -0.65876  -5.04605  -3.46452 
 N                    -1   -0.32836  -3.61409  -2.2819 
 C                    0    -1.1752   -3.90251  -1.25054 
 Cl                   0    -2.0554   -5.4013   -1.30786 
 N                    -1    2.25851   2.61269  -2.48314 
 C                    0     3.25396   1.78562  -2.07331 
 Cl                   0     4.92046   2.12425  -2.38019 
 N                    -1   -3.37906   2.02857   1.06405 
 C                    0    -3.591     2.07158  -0.27291 
 Cl                   0    -4.9711    2.84268  -0.97343 
 N                    0    -0.30489  -1.93672  -0.80647 
 C                    0    -1.17207  -2.88603  -0.34196 
 Cl                   0    -2.04472  -2.7295    1.11682 
 N                    0    -1.68511   0.97862  -0.00059 
 C                    0    -2.57232   1.43255  -0.93265 
 Cl                   0    -2.36241   1.15309  -2.62449 
 N                    0     1.36863   0.85145  -1.37718 
 C                    0     2.7256    0.71086  -1.40493 
 Cl                   0     3.52382  -0.63992  -0.69598 
 C                    0     0.16871  -2.41461  -1.95991 
 H                    0     0.88143  -1.87252  -2.56449 
 C                    0    -2.23752   1.36478   1.17885 
 H                    0    -1.76709   1.13126   2.12446 
 C                    0     1.15656   2.00958  -2.04532 
 H                    0     0.15755   2.38624  -2.21791 
 Co                   0     0.03017  -0.0356   -0.13926 
 C                    0     2.96737   2.2695    2.52659 
 C                    0     2.07743   2.77563   3.64338 
 O                    0     2.13986   1.46432   1.66608 
 C                    0     4.15865   1.48024   3.03356 
 H                    0     1.13126   3.24023   3.42977 
 H                    0     2.35618   2.66274   4.67749 
 H                    0     4.71879   1.07089   2.19097 
 H                    0     3.83149   0.66002   3.67647 
 H                    0     4.81188   2.14262   3.6065 
 H                    0     3.30228   3.09146   1.90316 
 N                    0     1.14395   5.98992  -0.2051 
 C                    0     1.13653   6.9612    0.97254 
 C                    0     1.9747    8.22366   0.83848 
 H                    0     1.46758   6.38952   1.84279 
 H                    0     0.09092   7.24124   1.11755 
 H                    0     1.91852   8.73643   1.80173 
 H                    0     3.0272    8.02343   0.64443 
 H                    0     1.59729   8.91134   0.07955 
 C                    0     1.19026   6.75277  -1.51043 
 C                    0     1.04659   5.92004  -2.77635 
 H                    0     2.13713   7.28786  -1.51854 
 H                    0     0.39263   7.49741  -1.44716 
 H                    0     1.27353   6.57424  -3.62198 
 H                    0     1.72824   5.06626  -2.82308 
 H                    0     0.02879   5.55373  -2.92033 
 C                    0    -0.15742   5.19752  -0.17137 
 C                    0    -0.43894   4.4235    1.10366 
 H                    0    -0.11632   4.50638  -1.01098 
 H                    0    -0.94671   5.92772  -0.36612 
 H                    0    -1.44868   4.01156   1.02668 
 H                    0     0.23834   3.57681   1.21857 
 H                    0    -0.39821   5.04094   2.0024 
 C                    0     2.29394   5.00043  -0.09551 
 C                    0     3.69956   5.57158  -0.12023 
 H                    0     2.15809   4.28007  -0.90177 
 H                    0     2.14122   4.49783   0.85642 
 H                    0     4.37836   4.71981  -0.21308 
 H                    0     3.89691   6.219    -0.97739 
 H                    0     3.94962   6.08414   0.80935 
 Br                   0     2.95311   5.08776   3.71595 
 C                    0     1.2427    0.75457   2.38971 
 O                    0     1.18239   1.03708   3.61216 
 O                    0     0.54712  -0.08531   1.77111 
 
 IRC-IRC-IRC-IRC-IRC-IRC-IRC-IRC-IRC-IRC-IRC-IRC-IRC-IRC-IRC-IRC-IRC-IRC
 ------------------------------------------------------------------------
 INPUT DATA FOR L123
 ------------------------------------------------------------------------
 GENERAL PARAMETERS:
 Follow reaction path in both directions.
 Maximum points per path      = 120
 Step size                    =   0.100 bohr
 Integration scheme           = HPC                                 
    Redo corrector integration= Yes                                 
    DWI Weight Power          =  2
    DWI will use Hessian update vectors when possible.
    Max correction cycles     =  20
 Initial Hessian              = CalcFC
 Hessian evaluation           = Analytic every   3 predictor steps
                              = Update at all corrector steps
 Hessian updating method      = Bofill                              
 ------------------------------------------------------------------------
 IRC-IRC-IRC-IRC-IRC-IRC-IRC-IRC-IRC-IRC-IRC-IRC-IRC-IRC-IRC-IRC-IRC-IRC
 Symmetry turned off by external request.
 Stoichiometry    C21H29BrCl6CoLiN7O3(4)
 Framework group  C1[X(C21H29BrCl6CoLiN7O3)]
 Deg. of freedom   201
 Full point group                 C1      NOp   1
                          Input orientation:                          
 ---------------------------------------------------------------------
 Center     Atomic      Atomic             Coordinates (Angstroms)
 Number     Number       Type             X           Y           Z
 ---------------------------------------------------------------------
      1          3           0       -0.658759   -5.046055   -3.464522
      2          7           0       -0.328360   -3.614087   -2.281904
      3          6           0       -1.175196   -3.902505   -1.250536
      4         17           0       -2.055403   -5.401298   -1.307863
      5          7           0        2.258511    2.612686   -2.483143
      6          6           0        3.253964    1.785615   -2.073306
      7         17           0        4.920458    2.124247   -2.380190
      8          7           0       -3.379063    2.028570    1.064048
      9          6           0       -3.591001    2.071575   -0.272906
     10         17           0       -4.971104    2.842683   -0.973432
     11          7           0       -0.304891   -1.936716   -0.806469
     12          6           0       -1.172073   -2.886033   -0.341964
     13         17           0       -2.044715   -2.729500    1.116816
     14          7           0       -1.685105    0.978615   -0.000594
     15          6           0       -2.572319    1.432548   -0.932647
     16         17           0       -2.362414    1.153089   -2.624488
     17          7           0        1.368625    0.851447   -1.377175
     18          6           0        2.725604    0.710855   -1.404932
     19         17           0        3.523820   -0.639921   -0.695975
     20          6           0        0.168712   -2.414613   -1.959914
     21          1           0        0.881430   -1.872519   -2.564489
     22          6           0       -2.237524    1.364779    1.178845
     23          1           0       -1.767094    1.131256    2.124456
     24          6           0        1.156558    2.009580   -2.045323
     25          1           0        0.157546    2.386239   -2.217910
     26         27           0        0.030166   -0.035600   -0.139258
     27          6           0        2.967373    2.269500    2.526590
     28          6           0        2.077429    2.775630    3.643380
     29          8           0        2.139859    1.464315    1.666082
     30          6           0        4.158654    1.480241    3.033564
     31          1           0        1.131260    3.240226    3.429765
     32          1           0        2.356182    2.662735    4.677485
     33          1           0        4.718790    1.070894    2.190965
     34          1           0        3.831490    0.660022    3.676465
     35          1           0        4.811882    2.142622    3.606499
     36          1           0        3.302277    3.091457    1.903161
     37          7           0        1.143949    5.989923   -0.205101
     38          6           0        1.136533    6.961204    0.972543
     39          6           0        1.974696    8.223662    0.838481
     40          1           0        1.467581    6.389524    1.842793
     41          1           0        0.090918    7.241244    1.117545
     42          1           0        1.918518    8.736431    1.801726
     43          1           0        3.027203    8.023434    0.644433
     44          1           0        1.597291    8.911339    0.079551
     45          6           0        1.190255    6.752772   -1.510434
     46          6           0        1.046587    5.920042   -2.776348
     47          1           0        2.137126    7.287860   -1.518544
     48          1           0        0.392626    7.497406   -1.447159
     49          1           0        1.273533    6.574241   -3.621977
     50          1           0        1.728244    5.066263   -2.823076
     51          1           0        0.028785    5.553732   -2.920329
     52          6           0       -0.157415    5.197519   -0.171365
     53          6           0       -0.438935    4.423500    1.103664
     54          1           0       -0.116321    4.506375   -1.010976
     55          1           0       -0.946705    5.927722   -0.366118
     56          1           0       -1.448682    4.011560    1.026681
     57          1           0        0.238336    3.576812    1.218570
     58          1           0       -0.398207    5.040942    2.002397
     59          6           0        2.293939    5.000431   -0.095509
     60          6           0        3.699563    5.571575   -0.120232
     61          1           0        2.158095    4.280069   -0.901766
     62          1           0        2.141225    4.497831    0.856419
     63          1           0        4.378360    4.719808   -0.213083
     64          1           0        3.896909    6.219004   -0.977387
     65          1           0        3.949622    6.084137    0.809348
     66         35           0        2.953110    5.087762    3.715953
     67          6           0        1.242699    0.754565    2.389713
     68          8           0        1.182394    1.037079    3.612164
     69          8           0        0.547116   -0.085312    1.771110
 ---------------------------------------------------------------------
 Rotational constants (GHZ):           0.0783747           0.0401115           0.0368046
 General basis read from cards:  (5D, 7F)
 ======================================================================================================
                                       Pseudopotential Parameters
 ======================================================================================================
  Center     Atomic      Valence      Angular      Power
  Number     Number     Electrons     Momentum     of R      Exponent        Coefficient   SO-Coeffient
 ======================================================================================================
    1          3
                                   No pseudopotential on this center.
    2          7
                                   No pseudopotential on this center.
    3          6
                                   No pseudopotential on this center.
    4         17
                                   No pseudopotential on this center.
    5          7
                                   No pseudopotential on this center.
    6          6
                                   No pseudopotential on this center.
    7         17
                                   No pseudopotential on this center.
    8          7
                                   No pseudopotential on this center.
    9          6
                                   No pseudopotential on this center.
   10         17
                                   No pseudopotential on this center.
   11          7
                                   No pseudopotential on this center.
   12          6
                                   No pseudopotential on this center.
   13         17
                                   No pseudopotential on this center.
   14          7
                                   No pseudopotential on this center.
   15          6
                                   No pseudopotential on this center.
   16         17
                                   No pseudopotential on this center.
   17          7
                                   No pseudopotential on this center.
   18          6
                                   No pseudopotential on this center.
   19         17
                                   No pseudopotential on this center.
   20          6
                                   No pseudopotential on this center.
   21          1
                                   No pseudopotential on this center.
   22          6
                                   No pseudopotential on this center.
   23          1
                                   No pseudopotential on this center.
   24          6
                                   No pseudopotential on this center.
   25          1
                                   No pseudopotential on this center.
   26         27           17
                                      D and up 
                                                     1      434.1076104      -10.00000000    0.00000000
                                                     2       78.8402758      -66.72402760    0.00000000
                                                     2       19.6037749      -11.71922430    0.00000000
                                      S - D
                                                     0      151.2307582        3.00000000    0.00000000
                                                     1      169.6790026       20.15531100    0.00000000
                                                     2       64.9909423      413.37622440    0.00000000
                                                     2       12.5076287      133.87277050    0.00000000
                                      P - D
                                                     0       92.7319924        5.00000000    0.00000000
                                                     1      121.1910183        6.18923530    0.00000000
                                                     2       48.6265909      326.32159190    0.00000000
                                                     2       11.9966971       73.87889700    0.00000000
   27          6
                                   No pseudopotential on this center.
   28          6
                                   No pseudopotential on this center.
   29          8
                                   No pseudopotential on this center.
   30          6
                                   No pseudopotential on this center.
   31          1
                                   No pseudopotential on this center.
   32          1
                                   No pseudopotential on this center.
   33          1
                                   No pseudopotential on this center.
   34          1
                                   No pseudopotential on this center.
   35          1
                                   No pseudopotential on this center.
   36          1
                                   No pseudopotential on this center.
   37          7
                                   No pseudopotential on this center.
   38          6
                                   No pseudopotential on this center.
   39          6
                                   No pseudopotential on this center.
   40          1
                                   No pseudopotential on this center.
   41          1
                                   No pseudopotential on this center.
   42          1
                                   No pseudopotential on this center.
   43          1
                                   No pseudopotential on this center.
   44          1
                                   No pseudopotential on this center.
   45          6
                                   No pseudopotential on this center.
   46          6
                                   No pseudopotential on this center.
   47          1
                                   No pseudopotential on this center.
   48          1
                                   No pseudopotential on this center.
   49          1
                                   No pseudopotential on this center.
   50          1
                                   No pseudopotential on this center.
   51          1
                                   No pseudopotential on this center.
   52          6
                                   No pseudopotential on this center.
   53          6
                                   No pseudopotential on this center.
   54          1
                                   No pseudopotential on this center.
   55          1
                                   No pseudopotential on this center.
   56          1
                                   No pseudopotential on this center.
   57          1
                                   No pseudopotential on this center.
   58          1
                                   No pseudopotential on this center.
   59          6
                                   No pseudopotential on this center.
   60          6
                                   No pseudopotential on this center.
   61          1
                                   No pseudopotential on this center.
   62          1
                                   No pseudopotential on this center.
   63          1
                                   No pseudopotential on this center.
   64          1
                                   No pseudopotential on this center.
   65          1
                                   No pseudopotential on this center.
   66         35
                                   No pseudopotential on this center.
   67          6
                                   No pseudopotential on this center.
   68          8
                                   No pseudopotential on this center.
   69          8
                                   No pseudopotential on this center.
 ======================================================================================================
   751 basis functions,  1546 primitive gaussians,   793 cartesian basis functions
   194 alpha electrons      191 beta electrons
       nuclear repulsion energy      7619.6189605973 Hartrees.
 NAtoms=   69 NActive=   69 NUniq=   69 SFac= 1.00D+00 NAtFMM=   60 NAOKFM=T Big=T
 Integral buffers will be    131072 words long.
 Raffenetti 2 integral format.
 Two-electron integral symmetry is turned off.
 One-electron integrals computed using PRISM.
   1 Symmetry operations used in ECPInt.
 ECPInt:  NShTT=   35245 NPrTT=  210561 LenC2=   26597 LenP2D=   81556.
 LDataN:  DoStor=T MaxTD1= 4 Len=   56
 NBasis=   751 RedAO= T EigKep=  1.35D-03  NBF=   751
 NBsUse=   751 1.00D-06 EigRej= -1.00D+00 NBFU=   751
 ExpMin= 2.30D-02 ExpMax= 5.74D+05 ExpMxC= 5.74D+03 IAcc=3 IRadAn=         5 AccDes= 0.00D+00
 Harris functional with IExCor=20419 and IRadAn=       5 diagonalized for initial guess.
 HarFok:  IExCor=20419 AccDes= 0.00D+00 IRadAn=         5 IDoV= 1 UseB2=F ITyADJ=14
 ICtDFT=  3500011 ScaDFX=  1.000000  1.000000  1.000000  1.000000
 FoFCou: FMM=F IPFlag=           0 FMFlag=      100000 FMFlg1=        2001
         NFxFlg=           0 DoJE=T BraDBF=F KetDBF=T FulRan=T
         wScrn=  0.000000 ICntrl=       500 IOpCl=  0 I1Cent=   200000004 NGrid=           0
         NMat0=    1 NMatS0=      1 NMatT0=    0 NMatD0=    1 NMtDS0=    0 NMtDT0=    0
 Symmetry not used in FoFCou.
 Initial guess <Sx>= 0.0000 <Sy>= 0.0000 <Sz>= 1.5000 <S**2>= 3.7500 S= 1.5000
 Gradient too large for Newton-Raphson -- use scaled steepest descent instead.
     Accept linear search using points  3 and  4.
 Gradient too large for Newton-Raphson -- use scaled steepest descent instead.
     Accept linear search using points  1 and  2.
 Gradient too large for Newton-Raphson -- use scaled steepest descent instead.
     Accept linear search using points  3 and  4.
 Gradient too large for Newton-Raphson -- use scaled steepest descent instead.
     Accept linear search using points  3 and  4.
 Gradient too large for Newton-Raphson -- use scaled steepest descent instead.
     Accept linear search using points  1 and  2.
 Gradient too large for Newton-Raphson -- use scaled steepest descent instead.
     Minimum is close to point  3 DX=  3.76D-03 DF= -2.57D-06 DXR=  4.68D-03 DFR=  2.06D-05 which will be used.
 Gradient too large for Newton-Raphson -- use scaled steepest descent instead.
 Restarting incremental Fock formation.
     Accept linear search using points  1 and  2.
 Gradient too large for Newton-Raphson -- use scaled steepest descent instead.
 Gradient too large for Newton-Raphson -- use scaled steepest descent instead.
     Accept linear search using points  1 and  2.
 Gradient too large for Newton-Raphson -- use scaled steepest descent instead.
     Accept linear search using points  2 and  3.
 Gradient too large for Newton-Raphson -- use scaled steepest descent instead.
     Accept linear search using points  1 and  2.
 Gradient too large for Newton-Raphson -- use scaled steepest descent instead.
     Accept linear search using points  3 and  4.
 Gradient too large for Newton-Raphson -- use scaled steepest descent instead.
     Accept linear search using points  1 and  2.
 Restarting incremental Fock formation.
 Gradient too large for Newton-Raphson -- use scaled steepest descent instead.
     Accept linear search using points  2 and  3.
 Gradient too large for Newton-Raphson -- use scaled steepest descent instead.
     Accept linear search using points  1 and  2.
 Gradient too large for Newton-Raphson -- use scaled steepest descent instead.
     Accept linear search using points  2 and  3.
     Minimum is close to point  3 DX= -7.54D-02 DF= -3.06D-06 DXR=  4.37D-02 DFR=  1.62D-03 which will be used.
 Gradient too large for Newton-Raphson -- use scaled steepest descent instead.
     Accept linear search using points  1 and  2.
 Gradient too large for Newton-Raphson -- use scaled steepest descent instead.
     Accept linear search using points  2 and  3.
     Minimum is close to point  3 DX= -4.86D-03 DF= -6.94D-09 DXR=  2.57D-03 DFR=  6.60D-06 which will be used.
 Gradient too large for Newton-Raphson -- use scaled steepest descent instead.
     Accept linear search using points  1 and  2.
 Gradient too large for Newton-Raphson -- use scaled steepest descent instead.
     Accept linear search using points  2 and  3.
     Minimum is close to point  3 DX= -9.01D-02 DF= -1.58D-06 DXR=  4.72D-02 DFR=  2.23D-03 which will be used.
 Gradient too large for Newton-Raphson -- use scaled steepest descent instead.
     Accept linear search using points  1 and  2.
 Gradient too large for Newton-Raphson -- use scaled steepest descent instead.
 Restarting incremental Fock formation.
     Minimum is close to point  3 DX=  1.12D-01 DF= -1.56D-06 DXR=  5.30D-02 DFR=  2.82D-03 which will be used.
 Gradient too large for Newton-Raphson -- use scaled steepest descent instead.
     Accept linear search using points  1 and  2.
 Gradient too large for Newton-Raphson -- use scaled steepest descent instead.
     Accept linear search using points  2 and  3.
     Minimum is close to point  3 DX= -1.48D-01 DF= -2.54D-06 DXR=  7.58D-02 DFR=  6.34D-03 which will be used.
 Gradient too large for Newton-Raphson -- use scaled steepest descent instead.
     Minimum is close to point  3 DX= -2.32D-04 DF= -9.37D-11 DXR=  4.65D-04 DFR=  2.20D-07 which will be used.
 Gradient too large for Newton-Raphson -- use scaled steepest descent instead.
 Gradient too large for Newton-Raphson -- use scaled steepest descent instead.
     Minimum is close to point  3 DX=  2.09D-03 DF= -6.80D-09 DXR=  4.16D-03 DFR=  1.73D-05 which will be used.
 LinEq1:  Iter=  0 NonCon=     1 RMS=5.46D-05 Max=1.18D-02 NDo=     1
 AX will form     1 AO Fock derivatives at one time.
 LinEq1:  Iter=  1 NonCon=     1 RMS=3.74D-05 Max=3.20D-03 NDo=     1
 LinEq1:  Iter=  2 NonCon=     1 RMS=1.27D-05 Max=1.90D-03 NDo=     1
 LinEq1:  Iter=  3 NonCon=     1 RMS=5.87D-06 Max=5.58D-04 NDo=     1
 LinEq1:  Iter=  4 NonCon=     1 RMS=5.16D-06 Max=6.31D-04 NDo=     1
 LinEq1:  Iter=  5 NonCon=     1 RMS=2.45D-06 Max=2.41D-04 NDo=     1
 LinEq1:  Iter=  6 NonCon=     1 RMS=1.73D-06 Max=1.60D-04 NDo=     1
 LinEq1:  Iter=  7 NonCon=     1 RMS=1.00D-06 Max=1.04D-04 NDo=     1
 LinEq1:  Iter=  8 NonCon=     1 RMS=7.47D-07 Max=6.34D-05 NDo=     1
 LinEq1:  Iter=  9 NonCon=     1 RMS=3.40D-07 Max=2.01D-05 NDo=     1
 LinEq1:  Iter= 10 NonCon=     1 RMS=2.28D-07 Max=2.17D-05 NDo=     1
 LinEq1:  Iter= 11 NonCon=     1 RMS=1.89D-07 Max=1.81D-05 NDo=     1
 LinEq1:  Iter= 12 NonCon=     1 RMS=1.19D-07 Max=9.73D-06 NDo=     1
 LinEq1:  Iter= 13 NonCon=     1 RMS=6.48D-08 Max=4.19D-06 NDo=     1
 LinEq1:  Iter= 14 NonCon=     1 RMS=3.73D-08 Max=3.43D-06 NDo=     1
 LinEq1:  Iter= 15 NonCon=     1 RMS=2.41D-08 Max=2.09D-06 NDo=     1
 LinEq1:  Iter= 16 NonCon=     1 RMS=1.86D-08 Max=1.43D-06 NDo=     1
 LinEq1:  Iter= 17 NonCon=     1 RMS=1.17D-08 Max=1.23D-06 NDo=     1
 LinEq1:  Iter= 18 NonCon=     1 RMS=6.64D-09 Max=5.39D-07 NDo=     1
 LinEq1:  Iter= 19 NonCon=     0 RMS=4.72D-09 Max=3.44D-07 NDo=     1
 Linear equations converged to 4.637D-08 4.637D-07 after    19 iterations.
 Incorrect curvature in search direction -- initial direction reversed.
     Accept linear search using points  3 and  4.
 Gradient too large for Newton-Raphson -- use scaled steepest descent instead.
 Gradient too large for Newton-Raphson -- use scaled steepest descent instead.
 Restarting incremental Fock formation.
     Accept linear search using points  1 and  2.
 Gradient too large for Newton-Raphson -- use scaled steepest descent instead.
     Accept linear search using points  2 and  3.
 Gradient too large for Newton-Raphson -- use scaled steepest descent instead.
     Accept linear search using points  1 and  2.
 Gradient too large for Newton-Raphson -- use scaled steepest descent instead.
     Accept linear search using points  2 and  3.
 Gradient too large for Newton-Raphson -- use scaled steepest descent instead.
     Accept linear search using points  1 and  2.
 Gradient too large for Newton-Raphson -- use scaled steepest descent instead.
     Accept linear search using points  2 and  3.
 Gradient too large for Newton-Raphson -- use scaled steepest descent instead.
     Accept linear search using points  1 and  2.
 Gradient too large for Newton-Raphson -- use scaled steepest descent instead.
     Minimum is close to point  3 DX=  3.42D-02 DF= -4.07D-07 DXR=  1.86D-02 DFR=  3.47D-04 which will be used.
 Gradient too large for Newton-Raphson -- use scaled steepest descent instead.
 Restarting incremental Fock formation.
     Accept linear search using points  1 and  2.
 Gradient too large for Newton-Raphson -- use scaled steepest descent instead.
     Accept linear search using points  2 and  3.
 Gradient too large for Newton-Raphson -- use scaled steepest descent instead.
     Accept linear search using points  1 and  2.
 Gradient too large for Newton-Raphson -- use scaled steepest descent instead.
     Accept linear search using points  2 and  3.
 Gradient too large for Newton-Raphson -- use scaled steepest descent instead.
     Accept linear search using points  1 and  2.
 Gradient too large for Newton-Raphson -- use scaled steepest descent instead.
     Accept linear search using points  2 and  3.
 Gradient too large for Newton-Raphson -- use scaled steepest descent instead.
     Accept linear search using points  1 and  2.
 Gradient too large for Newton-Raphson -- use scaled steepest descent instead.
     Accept linear search using points  2 and  3.
     Minimum is close to point  3 DX= -3.49D-02 DF= -2.83D-07 DXR=  1.87D-02 DFR=  3.51D-04 which will be used.
 Gradient too large for Newton-Raphson -- use scaled steepest descent instead.
     Accept linear search using points  1 and  2.
 Restarting incremental Fock formation.
 Gradient too large for Newton-Raphson -- use scaled steepest descent instead.
     Accept linear search using points  2 and  3.
     Minimum is close to point  3 DX= -9.07D-02 DF= -1.62D-06 DXR=  4.75D-02 DFR=  2.26D-03 which will be used.
 Gradient too large for Newton-Raphson -- use scaled steepest descent instead.
     Accept linear search using points  1 and  2.
 Gradient too large for Newton-Raphson -- use scaled steepest descent instead.
     Minimum is close to point  3 DX=  6.80D-02 DF= -6.97D-07 DXR=  3.29D-02 DFR=  1.08D-03 which will be used.
 Gradient too large for Newton-Raphson -- use scaled steepest descent instead.
     Accept linear search using points  1 and  2.
 Gradient too large for Newton-Raphson -- use scaled steepest descent instead.
     Accept linear search using points  2 and  3.
     Minimum is close to point  3 DX= -1.59D-01 DF= -3.69D-06 DXR=  8.17D-02 DFR=  7.33D-03 which will be used.
 Gradient too large for Newton-Raphson -- use scaled steepest descent instead.
     Minimum is close to point  3 DX= -9.48D-04 DF= -1.93D-09 DXR=  1.90D-03 DFR=  3.61D-06 which will be used.
 Gradient too large for Newton-Raphson -- use scaled steepest descent instead.
 Gradient too large for Newton-Raphson -- use scaled steepest descent instead.
     Minimum is close to point  3 DX=  1.02D-03 DF= -1.75D-09 DXR=  2.04D-03 DFR=  4.16D-06 which will be used.
 LinEq1:  Iter=  0 NonCon=     1 RMS=5.07D-05 Max=7.81D-03 NDo=     1
 LinEq1:  Iter=  1 NonCon=     1 RMS=3.73D-05 Max=2.80D-03 NDo=     1
 LinEq1:  Iter=  2 NonCon=     1 RMS=7.70D-06 Max=8.16D-04 NDo=     1
 LinEq1:  Iter=  3 NonCon=     1 RMS=2.39D-06 Max=2.24D-04 NDo=     1
 LinEq1:  Iter=  4 NonCon=     1 RMS=2.07D-06 Max=1.59D-04 NDo=     1
 LinEq1:  Iter=  5 NonCon=     1 RMS=1.37D-06 Max=1.55D-04 NDo=     1
 LinEq1:  Iter=  6 NonCon=     1 RMS=9.09D-07 Max=5.87D-05 NDo=     1
 LinEq1:  Iter=  7 NonCon=     1 RMS=5.02D-07 Max=3.40D-05 NDo=     1
 LinEq1:  Iter=  8 NonCon=     1 RMS=2.80D-07 Max=2.81D-05 NDo=     1
 LinEq1:  Iter=  9 NonCon=     1 RMS=1.99D-07 Max=1.79D-05 NDo=     1
 LinEq1:  Iter= 10 NonCon=     1 RMS=9.73D-08 Max=7.41D-06 NDo=     1
 LinEq1:  Iter= 11 NonCon=     1 RMS=5.30D-08 Max=3.12D-06 NDo=     1
 LinEq1:  Iter= 12 NonCon=     1 RMS=2.89D-08 Max=2.08D-06 NDo=     1
 LinEq1:  Iter= 13 NonCon=     1 RMS=1.76D-08 Max=1.77D-06 NDo=     1
 LinEq1:  Iter= 14 NonCon=     1 RMS=1.50D-08 Max=1.54D-06 NDo=     1
 LinEq1:  Iter= 15 NonCon=     1 RMS=8.75D-09 Max=5.64D-07 NDo=     1
 LinEq1:  Iter= 16 NonCon=     0 RMS=5.30D-09 Max=3.13D-07 NDo=     1
 Linear equations converged to 4.637D-08 4.637D-07 after    16 iterations.
 Restarting incremental Fock formation.
     Accept linear search using points  1 and  2.
 LinEq1:  Iter=  0 NonCon=     1 RMS=1.49D-05 Max=1.50D-03 NDo=     1
 LinEq1:  Iter=  1 NonCon=     1 RMS=1.38D-05 Max=1.55D-03 NDo=     1
 LinEq1:  Iter=  2 NonCon=     1 RMS=6.71D-06 Max=7.34D-04 NDo=     1
 LinEq1:  Iter=  3 NonCon=     1 RMS=4.36D-06 Max=3.13D-04 NDo=     1
 LinEq1:  Iter=  4 NonCon=     1 RMS=2.25D-06 Max=2.29D-04 NDo=     1
 LinEq1:  Iter=  5 NonCon=     1 RMS=1.55D-06 Max=1.74D-04 NDo=     1
 LinEq1:  Iter=  6 NonCon=     1 RMS=1.21D-06 Max=1.13D-04 NDo=     1
 LinEq1:  Iter=  7 NonCon=     1 RMS=8.20D-07 Max=4.51D-05 NDo=     1
 LinEq1:  Iter=  8 NonCon=     1 RMS=4.43D-07 Max=2.46D-05 NDo=     1
 LinEq1:  Iter=  9 NonCon=     1 RMS=2.49D-07 Max=1.14D-05 NDo=     1
 LinEq1:  Iter= 10 NonCon=     1 RMS=1.59D-07 Max=1.02D-05 NDo=     1
 LinEq1:  Iter= 11 NonCon=     1 RMS=1.10D-07 Max=1.38D-05 NDo=     1
 LinEq1:  Iter= 12 NonCon=     1 RMS=8.24D-08 Max=1.04D-05 NDo=     1
 LinEq1:  Iter= 13 NonCon=     1 RMS=5.42D-08 Max=4.44D-06 NDo=     1
 LinEq1:  Iter= 14 NonCon=     1 RMS=2.95D-08 Max=2.02D-06 NDo=     1
 LinEq1:  Iter= 15 NonCon=     1 RMS=1.63D-08 Max=1.67D-06 NDo=     1
 LinEq1:  Iter= 16 NonCon=     1 RMS=1.16D-08 Max=9.30D-07 NDo=     1
 LinEq1:  Iter= 17 NonCon=     1 RMS=7.23D-09 Max=4.94D-07 NDo=     1
 LinEq1:  Iter= 18 NonCon=     0 RMS=4.19D-09 Max=2.74D-07 NDo=     1
 Linear equations converged to 4.637D-08 4.637D-07 after    18 iterations.
     Minimum is close to point  2 DX=  8.26D-03 DF= -3.39D-09 DXR=  8.19D-03 DFR=  6.71D-05 which will be used.
 LinEq1:  Iter=  0 NonCon=     1 RMS=1.26D-07 Max=1.60D-05 NDo=     1
 LinEq1:  Iter=  1 NonCon=     1 RMS=1.04D-07 Max=1.22D-05 NDo=     1
 LinEq1:  Iter=  2 NonCon=     1 RMS=6.12D-08 Max=5.44D-06 NDo=     1
 LinEq1:  Iter=  3 NonCon=     1 RMS=3.35D-08 Max=2.64D-06 NDo=     1
 LinEq1:  Iter=  4 NonCon=     1 RMS=2.16D-08 Max=1.83D-06 NDo=     1
 LinEq1:  Iter=  5 NonCon=     1 RMS=1.70D-08 Max=2.15D-06 NDo=     1
 LinEq1:  Iter=  6 NonCon=     1 RMS=1.01D-08 Max=8.97D-07 NDo=     1
 LinEq1:  Iter=  7 NonCon=     1 RMS=5.38D-09 Max=3.29D-07 NDo=     1
 LinEq1:  Iter=  8 NonCon=     1 RMS=3.78D-09 Max=3.19D-07 NDo=     1
 LinEq1:  Iter=  9 NonCon=     1 RMS=2.16D-09 Max=1.29D-07 NDo=     1
 LinEq1:  Iter= 10 NonCon=     1 RMS=1.37D-09 Max=9.80D-08 NDo=     1
 LinEq1:  Iter= 11 NonCon=     1 RMS=9.61D-10 Max=8.16D-08 NDo=     1
 LinEq1:  Iter= 12 NonCon=     1 RMS=6.22D-10 Max=4.59D-08 NDo=     1
 LinEq1:  Iter= 13 NonCon=     1 RMS=4.37D-10 Max=3.20D-08 NDo=     1
 LinEq1:  Iter= 14 NonCon=     1 RMS=3.35D-10 Max=2.64D-08 NDo=     1
 LinEq1:  Iter= 15 NonCon=     1 RMS=1.90D-10 Max=1.29D-08 NDo=     1
 LinEq1:  Iter= 16 NonCon=     1 RMS=1.16D-10 Max=7.07D-09 NDo=     1
 LinEq1:  Iter= 17 NonCon=     1 RMS=6.77D-11 Max=5.97D-09 NDo=     1
 LinEq1:  Iter= 18 NonCon=     0 RMS=4.60D-11 Max=3.34D-09 NDo=     1
 Linear equations converged to 4.414D-10 4.414D-09 after    18 iterations.
 SCF Done:  E(UCAM-B3LYP) =  -6911.22488744     a.u. after   58 cycles
            Convg  =    0.4463D-06                   216 Fock formations.
              S**2 =  3.7545                  -V/T =  2.0106
 <Sx>= 0.0000 <Sy>= 0.0000 <Sz>= 1.5000 <S**2>= 3.7545 S= 1.5011
 <L.S>=  0.00000000000    
 Annihilation of the first spin contaminant:
 S**2 before annihilation     3.7545,   after     3.7500
 DoSCS=F DFT=T ScalE2(SS,OS)=  1.000000  1.000000
 Range of M.O.s used for correlation:     1   751
 NBasis=   751 NAE=   194 NBE=   191 NFC=     0 NFV=     0
 NROrb=    751 NOA=   194 NOB=   191 NVA=   557 NVB=   560
   1 Symmetry operations used in ECPInt.
 ECPInt:  NShTT=   35245 NPrTT=  210561 LenC2=   26597 LenP2D=   81556.
 LDataN:  DoStor=T MaxTD1= 5 Len=  102
 Number of processors reduced to  11 by ecpmxn.
 Symmetrizing basis deriv contribution to polar:
 IMax=3 JMax=2 DiffMx= 0.00D+00
 G2DrvN: will do    35 centers at a time, making    2 passes.
 Calling FoFCou, ICntrl=  3107 FMM=T I1Cent=   0 AccDes= 0.00D+00.
 Calling FoFCou, ICntrl=  3107 FMM=T I1Cent=   0 AccDes= 0.00D+00.
 End of G2Drv F.D. properties file   721 does not exist.
 End of G2Drv F.D. properties file   722 does not exist.
 End of G2Drv F.D. properties file   788 does not exist.
          IDoAtm=00110110111111111111111111111111111111111111111111
          IDoAtm=1111111111111111111
          Differentiating once with respect to nuclear coordinates.
 CalDSu exits because no D1Ps are significant.
          There are   198 degrees of freedom in the 1st order CPHF.  IDoFFX=6 NUNeed=     0.
    195 vectors produced by pass  0 Test12= 2.15D-13 1.00D-09 XBig12= 2.41D-01 1.17D-01.
 AX will form    96 AO Fock derivatives at one time.
    195 vectors produced by pass  1 Test12= 2.15D-13 1.00D-09 XBig12= 4.12D-02 4.68D-02.
    195 vectors produced by pass  2 Test12= 2.15D-13 1.00D-09 XBig12= 1.55D-03 4.22D-03.
    195 vectors produced by pass  3 Test12= 2.15D-13 1.00D-09 XBig12= 3.64D-05 7.73D-04.
    195 vectors produced by pass  4 Test12= 2.15D-13 1.00D-09 XBig12= 3.90D-07 8.78D-05.
    195 vectors produced by pass  5 Test12= 2.15D-13 1.00D-09 XBig12= 4.99D-09 8.33D-06.
    150 vectors produced by pass  6 Test12= 2.15D-13 1.00D-09 XBig12= 5.50D-11 1.18D-06.
     83 vectors produced by pass  7 Test12= 2.15D-13 1.00D-09 XBig12= 5.52D-13 8.73D-08.
     34 vectors produced by pass  8 Test12= 2.15D-13 1.00D-09 XBig12= 5.44D-15 6.77D-09.
 InvSVY:  IOpt=1 It=  1 EMax= 9.44D-16
 Solved reduced A of dimension  1437 with   198 vectors.
 End of Minotr F.D. properties file   721 does not exist.
 End of Minotr F.D. properties file   722 does not exist.
 End of Minotr F.D. properties file   788 does not exist.

 **********************************************************************

            Population analysis using the SCF Density.

 **********************************************************************

 Alpha  occ. eigenvalues -- -482.64306-101.65855-101.61433-101.59597-101.59264
 Alpha  occ. eigenvalues -- -101.58714-101.57231 -61.72497 -56.29343 -56.29220
 Alpha  occ. eigenvalues --  -56.29190 -19.25436 -19.20997 -19.20934 -14.54674
 Alpha  occ. eigenvalues --  -14.43972 -14.43776 -14.40808 -14.39712 -14.37816
 Alpha  occ. eigenvalues --  -14.35720 -10.42005 -10.35351 -10.34995 -10.33820
 Alpha  occ. eigenvalues --  -10.33234 -10.33230 -10.33175 -10.32765 -10.32377
 Alpha  occ. eigenvalues --  -10.31395 -10.31146 -10.30469 -10.30025 -10.29129
 Alpha  occ. eigenvalues --  -10.28746 -10.28152 -10.27484 -10.27045 -10.26711
 Alpha  occ. eigenvalues --  -10.26649 -10.24256  -9.59078  -9.54601  -9.52766
 Alpha  occ. eigenvalues --   -9.52419  -9.51951  -9.50489  -8.50597  -7.35463
 Alpha  occ. eigenvalues --   -7.34596  -7.34463  -7.31090  -7.30006  -7.30002
 Alpha  occ. eigenvalues --   -7.29210  -7.28849  -7.28383  -7.28206  -7.28190
 Alpha  occ. eigenvalues --   -7.27860  -7.27859  -7.27394  -7.27372  -7.26919
 Alpha  occ. eigenvalues --   -7.25930  -7.25910  -6.51842  -6.51390  -6.51342
 Alpha  occ. eigenvalues --   -3.94157  -2.64081  -2.63971  -2.63932  -2.63906
 Alpha  occ. eigenvalues --   -2.63814  -2.63739  -2.63574  -2.63573  -2.15513
 Alpha  occ. eigenvalues --   -1.21006  -1.12616  -1.11420  -1.09980  -1.07987
 Alpha  occ. eigenvalues --   -1.07264  -1.06571  -1.00419  -0.97597  -0.94978
 Alpha  occ. eigenvalues --   -0.93878  -0.93580  -0.92808  -0.92432  -0.89395
 Alpha  occ. eigenvalues --   -0.89158  -0.88612  -0.88304  -0.87584  -0.87316
 Alpha  occ. eigenvalues --   -0.83554  -0.81421  -0.78353  -0.76908  -0.76024
 Alpha  occ. eigenvalues --   -0.75581  -0.75273  -0.74330  -0.72866  -0.70929
 Alpha  occ. eigenvalues --   -0.69042  -0.66813  -0.66642  -0.64489  -0.63055
 Alpha  occ. eigenvalues --   -0.62455  -0.61815  -0.61296  -0.61118  -0.60932
 Alpha  occ. eigenvalues --   -0.60460  -0.59147  -0.58688  -0.57324  -0.56895
 Alpha  occ. eigenvalues --   -0.56590  -0.55702  -0.55457  -0.55154  -0.54569
 Alpha  occ. eigenvalues --   -0.52907  -0.52645  -0.52154  -0.51622  -0.50990
 Alpha  occ. eigenvalues --   -0.50743  -0.50269  -0.50061  -0.49718  -0.49317
 Alpha  occ. eigenvalues --   -0.48794  -0.48590  -0.48400  -0.48124  -0.47897
 Alpha  occ. eigenvalues --   -0.47732  -0.47460  -0.47086  -0.47075  -0.46764
 Alpha  occ. eigenvalues --   -0.46326  -0.45985  -0.45743  -0.45390  -0.45204
 Alpha  occ. eigenvalues --   -0.44838  -0.44576  -0.44414  -0.44135  -0.43799
 Alpha  occ. eigenvalues --   -0.43587  -0.43057  -0.42812  -0.42531  -0.42308
 Alpha  occ. eigenvalues --   -0.42197  -0.41789  -0.41493  -0.39816  -0.39338
 Alpha  occ. eigenvalues --   -0.39168  -0.38761  -0.38516  -0.38371  -0.38121
 Alpha  occ. eigenvalues --   -0.37688  -0.36834  -0.36659  -0.36207  -0.35869
 Alpha  occ. eigenvalues --   -0.35116  -0.34842  -0.34159  -0.33457  -0.32450
 Alpha  occ. eigenvalues --   -0.30635  -0.30276  -0.29236  -0.29158  -0.28342
 Alpha  occ. eigenvalues --   -0.28085  -0.27900  -0.25094  -0.23892
 Alpha virt. eigenvalues --   -0.05462   0.00321   0.01105   0.02818   0.05043
 Alpha virt. eigenvalues --    0.05573   0.05809   0.07276   0.07552   0.08318
 Alpha virt. eigenvalues --    0.08662   0.09306   0.09790   0.10403   0.10689
 Alpha virt. eigenvalues --    0.10975   0.11393   0.11919   0.11996   0.12291
 Alpha virt. eigenvalues --    0.12706   0.12908   0.13366   0.13452   0.13755
 Alpha virt. eigenvalues --    0.14077   0.14149   0.14531   0.14644   0.14835
 Alpha virt. eigenvalues --    0.15134   0.15501   0.15871   0.16969   0.17477
 Alpha virt. eigenvalues --    0.17969   0.18738   0.18754   0.19208   0.19426
 Alpha virt. eigenvalues --    0.19872   0.20370   0.20679   0.21052   0.21179
 Alpha virt. eigenvalues --    0.21767   0.22239   0.22483   0.22498   0.23123
 Alpha virt. eigenvalues --    0.23275   0.23979   0.24261   0.24993   0.25209
 Alpha virt. eigenvalues --    0.25531   0.26072   0.26507   0.26808   0.27273
 Alpha virt. eigenvalues --    0.27629   0.28276   0.28421   0.28800   0.29144
 Alpha virt. eigenvalues --    0.29825   0.31309   0.31781   0.31789   0.32006
 Alpha virt. eigenvalues --    0.32633   0.32935   0.33500   0.33644   0.34353
 Alpha virt. eigenvalues --    0.34813   0.36875   0.37824   0.39605   0.39871
 Alpha virt. eigenvalues --    0.40657   0.41422   0.41773   0.42011   0.42534
 Alpha virt. eigenvalues --    0.43182   0.44119   0.44533   0.45098   0.46236
 Alpha virt. eigenvalues --    0.47249   0.47558   0.47871   0.47998   0.48780
 Alpha virt. eigenvalues --    0.48959   0.49107   0.49330   0.49614   0.50120
 Alpha virt. eigenvalues --    0.50437   0.50913   0.51124   0.51826   0.52072
 Alpha virt. eigenvalues --    0.52410   0.52725   0.53668   0.53878   0.54397
 Alpha virt. eigenvalues --    0.54462   0.54880   0.55666   0.55806   0.55845
 Alpha virt. eigenvalues --    0.56428   0.56790   0.57434   0.57888   0.58244
 Alpha virt. eigenvalues --    0.58872   0.59412   0.59674   0.60167   0.60523
 Alpha virt. eigenvalues --    0.61267   0.61368   0.61558   0.61862   0.62386
 Alpha virt. eigenvalues --    0.62777   0.62968   0.63427   0.63983   0.64168
 Alpha virt. eigenvalues --    0.64210   0.64656   0.65109   0.65459   0.65844
 Alpha virt. eigenvalues --    0.66403   0.66766   0.67121   0.67478   0.67735
 Alpha virt. eigenvalues --    0.68087   0.68543   0.68688   0.69078   0.69462
 Alpha virt. eigenvalues --    0.69557   0.70165   0.70913   0.71138   0.71204
 Alpha virt. eigenvalues --    0.71824   0.72383   0.72763   0.73138   0.73905
 Alpha virt. eigenvalues --    0.74095   0.74520   0.75226   0.76157   0.76572
 Alpha virt. eigenvalues --    0.76759   0.77318   0.77836   0.78354   0.79181
 Alpha virt. eigenvalues --    0.79357   0.79805   0.80245   0.80725   0.81183
 Alpha virt. eigenvalues --    0.82911   0.83239   0.83621   0.84256   0.85270
 Alpha virt. eigenvalues --    0.85635   0.86053   0.86315   0.86673   0.86882
 Alpha virt. eigenvalues --    0.87241   0.87778   0.88441   0.89247   0.89371
 Alpha virt. eigenvalues --    0.89876   0.90229   0.90494   0.90761   0.91065
 Alpha virt. eigenvalues --    0.91435   0.91528   0.91585   0.91994   0.92251
 Alpha virt. eigenvalues --    0.92639   0.93146   0.93245   0.93379   0.93525
 Alpha virt. eigenvalues --    0.94127   0.94241   0.94606   0.94743   0.94819
 Alpha virt. eigenvalues --    0.95084   0.95496   0.95543   0.95841   0.96034
 Alpha virt. eigenvalues --    0.96388   0.96535   0.97032   0.97421   0.97728
 Alpha virt. eigenvalues --    0.98208   0.98450   0.98855   0.99025   0.99741
 Alpha virt. eigenvalues --    1.00055   1.00318   1.01203   1.01371   1.02046
 Alpha virt. eigenvalues --    1.02159   1.02654   1.02823   1.03414   1.03666
 Alpha virt. eigenvalues --    1.03898   1.04087   1.04624   1.04808   1.05387
 Alpha virt. eigenvalues --    1.05757   1.06203   1.06608   1.07298   1.07374
 Alpha virt. eigenvalues --    1.07969   1.08116   1.08787   1.09345   1.09682
 Alpha virt. eigenvalues --    1.10270   1.10848   1.11916   1.12517   1.12677
 Alpha virt. eigenvalues --    1.12919   1.13465   1.13522   1.14337   1.14664
 Alpha virt. eigenvalues --    1.15045   1.16160   1.16482   1.16967   1.17724
 Alpha virt. eigenvalues --    1.18286   1.19270   1.19523   1.21221   1.21966
 Alpha virt. eigenvalues --    1.22498   1.23005   1.23993   1.24470   1.25153
 Alpha virt. eigenvalues --    1.26103   1.27406   1.28221   1.29553   1.29722
 Alpha virt. eigenvalues --    1.31492   1.31963   1.32443   1.33390   1.34614
 Alpha virt. eigenvalues --    1.35562   1.36572   1.37235   1.38239   1.38475
 Alpha virt. eigenvalues --    1.39186   1.40345   1.41748   1.42472   1.42898
 Alpha virt. eigenvalues --    1.43297   1.43763   1.44428   1.45653   1.46345
 Alpha virt. eigenvalues --    1.46839   1.47688   1.47858   1.48592   1.48749
 Alpha virt. eigenvalues --    1.49531   1.50104   1.51044   1.51579   1.51865
 Alpha virt. eigenvalues --    1.52062   1.53334   1.54102   1.56290   1.56600
 Alpha virt. eigenvalues --    1.57615   1.57807   1.59643   1.60786   1.61908
 Alpha virt. eigenvalues --    1.62202   1.63179   1.64455   1.65149   1.65957
 Alpha virt. eigenvalues --    1.66497   1.67385   1.67572   1.67924   1.68607
 Alpha virt. eigenvalues --    1.69079   1.69812   1.70836   1.71257   1.72244
 Alpha virt. eigenvalues --    1.72813   1.73147   1.73787   1.74457   1.75558
 Alpha virt. eigenvalues --    1.76172   1.76706   1.77803   1.78257   1.79987
 Alpha virt. eigenvalues --    1.80683   1.82817   1.84723   1.86019   1.86987
 Alpha virt. eigenvalues --    1.87541   1.88179   1.89262   1.90139   1.91212
 Alpha virt. eigenvalues --    1.92151   1.93171   1.93466   1.95224   1.95524
 Alpha virt. eigenvalues --    1.95747   1.96887   1.97762   1.97962   1.98381
 Alpha virt. eigenvalues --    1.98829   1.99678   2.00605   2.01155   2.02107
 Alpha virt. eigenvalues --    2.02817   2.03267   2.03371   2.04686   2.05583
 Alpha virt. eigenvalues --    2.07230   2.07781   2.08001   2.08432   2.10005
 Alpha virt. eigenvalues --    2.10252   2.10715   2.11094   2.11533   2.11801
 Alpha virt. eigenvalues --    2.12283   2.12706   2.13105   2.13488   2.14382
 Alpha virt. eigenvalues --    2.14719   2.14949   2.15653   2.15936   2.16958
 Alpha virt. eigenvalues --    2.17130   2.17549   2.17674   2.18362   2.18985
 Alpha virt. eigenvalues --    2.19340   2.19784   2.20036   2.20394   2.20948
 Alpha virt. eigenvalues --    2.21421   2.21857   2.22602   2.23830   2.24134
 Alpha virt. eigenvalues --    2.25108   2.25827   2.25944   2.27599   2.28299
 Alpha virt. eigenvalues --    2.29231   2.29323   2.30997   2.31056   2.32405
 Alpha virt. eigenvalues --    2.32919   2.33348   2.33996   2.34605   2.35061
 Alpha virt. eigenvalues --    2.35149   2.35712   2.36022   2.36267   2.36813
 Alpha virt. eigenvalues --    2.37342   2.38903   2.39926   2.40123   2.40575
 Alpha virt. eigenvalues --    2.41983   2.42675   2.42970   2.43582   2.44511
 Alpha virt. eigenvalues --    2.45892   2.47126   2.48953   2.49675   2.49890
 Alpha virt. eigenvalues --    2.50747   2.51426   2.53185   2.54985   2.58215
 Alpha virt. eigenvalues --    2.59495   2.61437   2.62630   2.63813   2.64197
 Alpha virt. eigenvalues --    2.64404   2.65518   2.66547   2.66678   2.66813
 Alpha virt. eigenvalues --    2.67930   2.68384   2.68626   2.69361   2.69857
 Alpha virt. eigenvalues --    2.70116   2.70358   2.70736   2.71810   2.72408
 Alpha virt. eigenvalues --    2.72724   2.73114   2.73974   2.74266   2.75090
 Alpha virt. eigenvalues --    2.76364   2.76900   2.78049   2.78804   2.79177
 Alpha virt. eigenvalues --    2.79699   2.80070   2.80524   2.80879   2.81260
 Alpha virt. eigenvalues --    2.83518   2.84487   2.85079   2.85565   2.86302
 Alpha virt. eigenvalues --    2.86453   2.88022   2.88334   2.88425   2.89472
 Alpha virt. eigenvalues --    2.89956   2.90075   2.90369   2.91460   2.91657
 Alpha virt. eigenvalues --    2.92547   2.93013   2.93652   2.94619   2.95956
 Alpha virt. eigenvalues --    2.96097   2.96349   2.97769   2.98498   2.98755
 Alpha virt. eigenvalues --    2.99129   2.99559   2.99754   3.00535   3.01574
 Alpha virt. eigenvalues --    3.02181   3.03887   3.04476   3.06100   3.07848
 Alpha virt. eigenvalues --    3.11457   3.19285   3.23580   3.25371   3.25787
 Alpha virt. eigenvalues --    3.26026   3.27052   3.27791   3.29715   3.31086
 Alpha virt. eigenvalues --    3.32076   3.35317   3.37631   3.38849   3.42177
 Alpha virt. eigenvalues --    3.45766   3.46475   3.47583   3.48388   3.49792
 Alpha virt. eigenvalues --    3.51326   3.52074   3.52346   3.53540   3.57524
 Alpha virt. eigenvalues --    3.57928   3.58093   3.59299   3.60004   3.60757
 Alpha virt. eigenvalues --    3.61780   3.62478   3.63204   3.64208   3.70527
 Alpha virt. eigenvalues --    6.01784   8.67098
  Beta  occ. eigenvalues -- -482.64306-101.65854-101.61432-101.59596-101.59263
  Beta  occ. eigenvalues -- -101.58712-101.57229 -61.72497 -56.29343 -56.29220
  Beta  occ. eigenvalues --  -56.29190 -19.25432 -19.20980 -19.20752 -14.54674
  Beta  occ. eigenvalues --  -14.43844 -14.43771 -14.40678 -14.39556 -14.37809
  Beta  occ. eigenvalues --  -14.35712 -10.41997 -10.35342 -10.34994 -10.33820
  Beta  occ. eigenvalues --  -10.33233 -10.33220 -10.33175 -10.32765 -10.32378
  Beta  occ. eigenvalues --  -10.31395 -10.31146 -10.30456 -10.30029 -10.29110
  Beta  occ. eigenvalues --  -10.28733 -10.28152 -10.27484 -10.27028 -10.26711
  Beta  occ. eigenvalues --  -10.26649 -10.24256  -9.59077  -9.54600  -9.52764
  Beta  occ. eigenvalues --   -9.52418  -9.51950  -9.50488  -8.50597  -7.35461
  Beta  occ. eigenvalues --   -7.34595  -7.34462  -7.31088  -7.30005  -7.30001
  Beta  occ. eigenvalues --   -7.29208  -7.28847  -7.28382  -7.28204  -7.28187
  Beta  occ. eigenvalues --   -7.27859  -7.27857  -7.27392  -7.27370  -7.26918
  Beta  occ. eigenvalues --   -7.25927  -7.25909  -6.51841  -6.51390  -6.51342
  Beta  occ. eigenvalues --   -3.78681  -2.64080  -2.63970  -2.63932  -2.63574
  Beta  occ. eigenvalues --   -2.63573  -2.47318  -2.47279  -2.47199  -2.15512
  Beta  occ. eigenvalues --   -1.20933  -1.12528  -1.11420  -1.09773  -1.07878
  Beta  occ. eigenvalues --   -1.07113  -1.06434  -1.00354  -0.97574  -0.94910
  Beta  occ. eigenvalues --   -0.93828  -0.93543  -0.92720  -0.92360  -0.89395
  Beta  occ. eigenvalues --   -0.89158  -0.88530  -0.88296  -0.87569  -0.87206
  Beta  occ. eigenvalues --   -0.83554  -0.81380  -0.78348  -0.76857  -0.76023
  Beta  occ. eigenvalues --   -0.75520  -0.75271  -0.74329  -0.72852  -0.70907
  Beta  occ. eigenvalues --   -0.68921  -0.66812  -0.66554  -0.64346  -0.62889
  Beta  occ. eigenvalues --   -0.62167  -0.61717  -0.61280  -0.61117  -0.60731
  Beta  occ. eigenvalues --   -0.60335  -0.59146  -0.58197  -0.57112  -0.56730
  Beta  occ. eigenvalues --   -0.56280  -0.55530  -0.55142  -0.54881  -0.54436
  Beta  occ. eigenvalues --   -0.52844  -0.52633  -0.52091  -0.51393  -0.50749
  Beta  occ. eigenvalues --   -0.50479  -0.49949  -0.49762  -0.49192  -0.48544
  Beta  occ. eigenvalues --   -0.48467  -0.48268  -0.47876  -0.47465  -0.47307
  Beta  occ. eigenvalues --   -0.47260  -0.47064  -0.46775  -0.46333  -0.45974
  Beta  occ. eigenvalues --   -0.45523  -0.45386  -0.44938  -0.44578  -0.44404
  Beta  occ. eigenvalues --   -0.44131  -0.43788  -0.43575  -0.43488  -0.43035
  Beta  occ. eigenvalues --   -0.42345  -0.42275  -0.42025  -0.41751  -0.41458
  Beta  occ. eigenvalues --   -0.40080  -0.39339  -0.39170  -0.38737  -0.38566
  Beta  occ. eigenvalues --   -0.38182  -0.37930  -0.37615  -0.37071  -0.36634
  Beta  occ. eigenvalues --   -0.36249  -0.36007  -0.35799  -0.34651  -0.34012
  Beta  occ. eigenvalues --   -0.33628  -0.32901  -0.30757  -0.30503  -0.29240
  Beta  occ. eigenvalues --   -0.29028  -0.28400  -0.28102  -0.27917  -0.25080
  Beta  occ. eigenvalues --   -0.23885
  Beta virt. eigenvalues --   -0.05465   0.00055   0.00328   0.00517   0.00721
  Beta virt. eigenvalues --    0.01394   0.02933   0.05052   0.05676   0.05935
  Beta virt. eigenvalues --    0.07472   0.07743   0.08671   0.08713   0.09323
  Beta virt. eigenvalues --    0.10190   0.10599   0.10763   0.11282   0.11584
  Beta virt. eigenvalues --    0.12041   0.12405   0.12564   0.12831   0.12959
  Beta virt. eigenvalues --    0.13459   0.13531   0.13846   0.14159   0.14204
  Beta virt. eigenvalues --    0.14588   0.14680   0.14911   0.15303   0.15510
  Beta virt. eigenvalues --    0.15898   0.17060   0.17619   0.18025   0.18750
  Beta virt. eigenvalues --    0.18831   0.19266   0.19458   0.19955   0.20404
  Beta virt. eigenvalues --    0.20787   0.21176   0.21527   0.22189   0.22360
  Beta virt. eigenvalues --    0.22505   0.23142   0.23245   0.23669   0.24338
  Beta virt. eigenvalues --    0.24638   0.25076   0.25337   0.25612   0.26096
  Beta virt. eigenvalues --    0.26657   0.26947   0.27364   0.27671   0.28394
  Beta virt. eigenvalues --    0.28555   0.28889   0.29201   0.29867   0.31381
  Beta virt. eigenvalues --    0.31793   0.31903   0.32082   0.32736   0.33127
  Beta virt. eigenvalues --    0.33572   0.33758   0.34542   0.34874   0.37043
  Beta virt. eigenvalues --    0.37888   0.39713   0.39974   0.40772   0.41502
  Beta virt. eigenvalues --    0.41823   0.42148   0.42635   0.43259   0.44341
  Beta virt. eigenvalues --    0.44601   0.45288   0.46343   0.47336   0.47582
  Beta virt. eigenvalues --    0.47901   0.48060   0.48834   0.49028   0.49200
  Beta virt. eigenvalues --    0.49388   0.49685   0.50140   0.50498   0.50969
  Beta virt. eigenvalues --    0.51166   0.51862   0.52118   0.52453   0.52749
  Beta virt. eigenvalues --    0.53740   0.53967   0.54497   0.54558   0.54973
  Beta virt. eigenvalues --    0.55723   0.55815   0.55868   0.56489   0.56844
  Beta virt. eigenvalues --    0.57463   0.57964   0.58304   0.58914   0.59452
  Beta virt. eigenvalues --    0.59721   0.60194   0.60566   0.61291   0.61436
  Beta virt. eigenvalues --    0.61700   0.61901   0.62414   0.62795   0.63028
  Beta virt. eigenvalues --    0.63531   0.64045   0.64258   0.64269   0.64738
  Beta virt. eigenvalues --    0.65215   0.65519   0.65882   0.66451   0.66826
  Beta virt. eigenvalues --    0.67159   0.67517   0.67771   0.68170   0.68579
  Beta virt. eigenvalues --    0.68705   0.69127   0.69489   0.69773   0.70201
  Beta virt. eigenvalues --    0.71021   0.71251   0.71333   0.71864   0.72415
  Beta virt. eigenvalues --    0.72826   0.73199   0.73958   0.74243   0.74622
  Beta virt. eigenvalues --    0.75380   0.76193   0.76627   0.76970   0.77381
  Beta virt. eigenvalues --    0.77980   0.78543   0.79216   0.79448   0.79981
  Beta virt. eigenvalues --    0.80323   0.80851   0.81225   0.83266   0.83281
  Beta virt. eigenvalues --    0.83752   0.84460   0.85563   0.85698   0.86259
  Beta virt. eigenvalues --    0.86461   0.86735   0.86968   0.87407   0.87992
  Beta virt. eigenvalues --    0.88496   0.89380   0.89577   0.89943   0.90399
  Beta virt. eigenvalues --    0.90569   0.90862   0.91102   0.91547   0.91585
  Beta virt. eigenvalues --    0.91679   0.92083   0.92293   0.92707   0.93178
  Beta virt. eigenvalues --    0.93320   0.93496   0.93566   0.94291   0.94371
  Beta virt. eigenvalues --    0.94642   0.94758   0.94910   0.95252   0.95546
  Beta virt. eigenvalues --    0.95671   0.95878   0.96066   0.96459   0.96603
  Beta virt. eigenvalues --    0.97118   0.97503   0.97903   0.98349   0.98755
  Beta virt. eigenvalues --    0.98971   0.99180   1.00116   1.00228   1.00834
  Beta virt. eigenvalues --    1.01266   1.01596   1.02110   1.02394   1.02826
  Beta virt. eigenvalues --    1.02916   1.03579   1.03852   1.04140   1.04347
  Beta virt. eigenvalues --    1.04698   1.04996   1.05598   1.06178   1.06502
  Beta virt. eigenvalues --    1.06760   1.07500   1.07553   1.08209   1.08652
  Beta virt. eigenvalues --    1.09119   1.09514   1.09734   1.10414   1.10898
  Beta virt. eigenvalues --    1.12338   1.12711   1.12829   1.13313   1.13597
  Beta virt. eigenvalues --    1.13797   1.14438   1.15008   1.15431   1.16505
  Beta virt. eigenvalues --    1.16671   1.17198   1.17895   1.18601   1.19554
  Beta virt. eigenvalues --    1.19609   1.21297   1.22366   1.22651   1.23177
  Beta virt. eigenvalues --    1.24031   1.24719   1.25401   1.26502   1.27458
  Beta virt. eigenvalues --    1.28357   1.29687   1.29745   1.31567   1.32072
  Beta virt. eigenvalues --    1.32608   1.33437   1.34759   1.35622   1.36632
  Beta virt. eigenvalues --    1.37311   1.38274   1.38497   1.39342   1.40413
  Beta virt. eigenvalues --    1.41855   1.42556   1.43031   1.43330   1.43839
  Beta virt. eigenvalues --    1.44468   1.45697   1.46431   1.46867   1.47780
  Beta virt. eigenvalues --    1.47960   1.48673   1.48829   1.49616   1.50173
  Beta virt. eigenvalues --    1.51103   1.51600   1.52005   1.52251   1.53423
  Beta virt. eigenvalues --    1.54225   1.56378   1.56653   1.57640   1.57911
  Beta virt. eigenvalues --    1.59734   1.60853   1.61983   1.62222   1.63205
  Beta virt. eigenvalues --    1.64505   1.65154   1.66040   1.66549   1.67427
  Beta virt. eigenvalues --    1.67650   1.68066   1.68649   1.69115   1.69845
  Beta virt. eigenvalues --    1.70919   1.71362   1.72286   1.72834   1.73268
  Beta virt. eigenvalues --    1.73864   1.74514   1.75685   1.76368   1.76782
  Beta virt. eigenvalues --    1.77877   1.78315   1.80071   1.80878   1.82968
  Beta virt. eigenvalues --    1.84731   1.86028   1.87066   1.87576   1.88182
  Beta virt. eigenvalues --    1.89267   1.90157   1.91259   1.92155   1.93205
  Beta virt. eigenvalues --    1.93510   1.95277   1.95620   1.95862   1.96966
  Beta virt. eigenvalues --    1.97785   1.98037   1.98396   1.98946   1.99741
  Beta virt. eigenvalues --    2.00668   2.01224   2.02247   2.02931   2.03282
  Beta virt. eigenvalues --    2.03485   2.04689   2.05656   2.07265   2.07810
  Beta virt. eigenvalues --    2.08092   2.08477   2.10045   2.10257   2.10739
  Beta virt. eigenvalues --    2.11097   2.11591   2.11852   2.12292   2.12765
  Beta virt. eigenvalues --    2.13117   2.13506   2.14410   2.14752   2.14962
  Beta virt. eigenvalues --    2.15682   2.15950   2.16971   2.17184   2.17586
  Beta virt. eigenvalues --    2.17687   2.18367   2.19025   2.19356   2.19825
  Beta virt. eigenvalues --    2.20056   2.20405   2.21016   2.21435   2.21867
  Beta virt. eigenvalues --    2.22606   2.23890   2.24149   2.25142   2.25857
  Beta virt. eigenvalues --    2.25985   2.27622   2.28378   2.29263   2.29333
  Beta virt. eigenvalues --    2.31048   2.31075   2.32415   2.32946   2.33393
  Beta virt. eigenvalues --    2.34042   2.34638   2.35094   2.35201   2.35726
  Beta virt. eigenvalues --    2.36084   2.36286   2.36894   2.37386   2.38974
  Beta virt. eigenvalues --    2.39947   2.40180   2.40617   2.41993   2.42728
  Beta virt. eigenvalues --    2.43039   2.43607   2.44526   2.45895   2.47133
  Beta virt. eigenvalues --    2.49025   2.49701   2.49950   2.50755   2.51432
  Beta virt. eigenvalues --    2.53187   2.54987   2.58216   2.59499   2.61466
  Beta virt. eigenvalues --    2.62636   2.63870   2.64232   2.64443   2.65525
  Beta virt. eigenvalues --    2.66606   2.66704   2.66867   2.67978   2.68452
  Beta virt. eigenvalues --    2.68665   2.69418   2.69916   2.70170   2.70397
  Beta virt. eigenvalues --    2.70772   2.71872   2.72465   2.72768   2.73151
  Beta virt. eigenvalues --    2.73989   2.74325   2.75112   2.76390   2.76998
  Beta virt. eigenvalues --    2.78103   2.78816   2.79208   2.79732   2.80094
  Beta virt. eigenvalues --    2.80537   2.80886   2.81269   2.83521   2.84504
  Beta virt. eigenvalues --    2.85150   2.85572   2.86334   2.86460   2.88033
  Beta virt. eigenvalues --    2.88373   2.88493   2.89483   2.89996   2.90118
  Beta virt. eigenvalues --    2.90427   2.91505   2.91663   2.92551   2.93087
  Beta virt. eigenvalues --    2.93657   2.94622   2.95974   2.96098   2.96392
  Beta virt. eigenvalues --    2.97776   2.98543   2.98805   2.99162   2.99579
  Beta virt. eigenvalues --    2.99789   3.00562   3.01583   3.02183   3.03897
  Beta virt. eigenvalues --    3.04507   3.06140   3.07874   3.11550   3.19335
  Beta virt. eigenvalues --    3.23631   3.25431   3.25839   3.26029   3.27095
  Beta virt. eigenvalues --    3.27797   3.29717   3.31092   3.32078   3.35317
  Beta virt. eigenvalues --    3.37631   3.38849   3.42178   3.45768   3.46477
  Beta virt. eigenvalues --    3.47584   3.48389   3.49792   3.51326   3.52074
  Beta virt. eigenvalues --    3.52346   3.53540   3.57524   3.57930   3.58128
  Beta virt. eigenvalues --    3.59300   3.60005   3.60758   3.61787   3.62503
  Beta virt. eigenvalues --    3.63218   3.64228   3.70529   6.00880   8.67099
          Condensed to atoms (all electrons):
          Atomic-Atomic Spin Densities.
 Mulliken charges and spin densities:
               1          2
     1  Li   0.592835   0.000536
     2  N   -0.503193   0.001172
     3  C    0.064925   0.004293
     4  Cl   0.065396   0.001137
     5  N   -0.410397   0.002226
     6  C    0.003913   0.006882
     7  Cl  -0.027652   0.001102
     8  N   -0.380237   0.002757
     9  C    0.003677   0.010168
    10  Cl  -0.033649   0.001312
    11  N   -0.499447   0.046988
    12  C    0.059288  -0.001315
    13  Cl   0.070468   0.000742
    14  N   -0.529815   0.064184
    15  C    0.021779  -0.005347
    16  Cl  -0.022230   0.000769
    17  N   -0.518467   0.051702
    18  C    0.050945  -0.002980
    19  Cl  -0.003551   0.000993
    20  C    0.242066   0.002176
    21  H    0.153529   0.000688
    22  C    0.168982   0.005713
    23  H    0.125674   0.000118
    24  C    0.174354   0.003942
    25  H    0.107484   0.000333
    26  Co   0.793895   2.738335
    27  C    0.165017  -0.000200
    28  C   -0.069895   0.000810
    29  O   -0.458110   0.001343
    30  C   -0.335491   0.000031
    31  H    0.186277  -0.000009
    32  H    0.194666  -0.000017
    33  H    0.134782  -0.000003
    34  H    0.127438   0.000001
    35  H    0.131236   0.000001
    36  H    0.138557   0.000156
    37  N   -0.380825  -0.000001
    38  C   -0.079381   0.000002
    39  C   -0.339872   0.000000
    40  H    0.189251  -0.000003
    41  H    0.134459   0.000001
    42  H    0.147060   0.000000
    43  H    0.135406   0.000000
    44  H    0.114560   0.000000
    45  C   -0.060419  -0.000001
    46  C   -0.367444   0.000029
    47  H    0.144798  -0.000000
    48  H    0.133930   0.000002
    49  H    0.127393   0.000000
    50  H    0.184953   0.000041
    51  H    0.130951  -0.000002
    52  C   -0.078956   0.000010
    53  C   -0.361085   0.000037
    54  H    0.163076   0.000013
    55  H    0.136619   0.000001
    56  H    0.177951  -0.000031
    57  H    0.138670  -0.000104
    58  H    0.134974  -0.000002
    59  C   -0.077090   0.000022
    60  C   -0.351312   0.000003
    61  H    0.172925  -0.000021
    62  H    0.150621  -0.000001
    63  H    0.154582  -0.000004
    64  H    0.110249  -0.000000
    65  H    0.150937   0.000000
    66  Br  -0.568040   0.001038
    67  C    0.804099   0.001762
    68  O   -0.490983   0.004626
    69  O   -0.567106   0.051844
 Sum of Mulliken charges =   0.00000   3.00000
 Mulliken charges and spin densities with hydrogens summed into heavy atoms:
               1          2
     1  Li   0.592835   0.000536
     2  N   -0.503193   0.001172
     3  C    0.064925   0.004293
     4  Cl   0.065396   0.001137
     5  N   -0.410397   0.002226
     6  C    0.003913   0.006882
     7  Cl  -0.027652   0.001102
     8  N   -0.380237   0.002757
     9  C    0.003677   0.010168
    10  Cl  -0.033649   0.001312
    11  N   -0.499447   0.046988
    12  C    0.059288  -0.001315
    13  Cl   0.070468   0.000742
    14  N   -0.529815   0.064184
    15  C    0.021779  -0.005347
    16  Cl  -0.022230   0.000769
    17  N   -0.518467   0.051702
    18  C    0.050945  -0.002980
    19  Cl  -0.003551   0.000993
    20  C    0.395595   0.002864
    22  C    0.294657   0.005831
    24  C    0.281838   0.004275
    26  Co   0.793895   2.738335
    27  C    0.303575  -0.000044
    28  C    0.311048   0.000784
    29  O   -0.458110   0.001343
    30  C    0.057966   0.000030
    37  N   -0.380825  -0.000001
    38  C    0.244329  -0.000001
    39  C    0.057154   0.000000
    45  C    0.218308   0.000001
    46  C    0.075853   0.000069
    52  C    0.220740   0.000024
    53  C    0.090511  -0.000100
    59  C    0.246456  -0.000001
    60  C    0.064456  -0.000002
    66  Br  -0.568040   0.001038
    67  C    0.804099   0.001762
    68  O   -0.490983   0.004626
    69  O   -0.567106   0.051844
 Electronic spatial extent (au):  <R**2>=          34537.7227
 Charge=              0.0000 electrons
 Dipole moment (field-independent basis, Debye):
    X=              1.3889    Y=             -4.9629    Z=            -11.3952  Tot=             12.5064
 Quadrupole moment (field-independent basis, Debye-Ang):
   XX=           -342.5811   YY=           -170.9218   ZZ=           -290.8716
   XY=             12.3049   XZ=              3.9449   YZ=             23.2685
 Traceless Quadrupole moment (field-independent basis, Debye-Ang):
   XX=            -74.4563   YY=             97.2030   ZZ=            -22.7468
   XY=             12.3049   XZ=              3.9449   YZ=             23.2685
 Octapole moment (field-independent basis, Debye-Ang**2):
  XXX=           -404.1944  YYY=          -1235.2087  ZZZ=           -177.5359  XYY=           -170.0699
  XXY=           -601.2557  XXZ=             16.1354  XZZ=           -241.1653  YZZ=           -789.2933
  YYZ=           -427.1431  XYZ=            -96.1951
 Hexadecapole moment (field-independent basis, Debye-Ang**3):
 XXXX=         -12731.0160 YYYY=         -17851.7448 ZZZZ=          -6850.7393 XXXY=          -3074.5939
 XXXZ=           -770.5606 YYYX=          -2664.3881 YYYZ=           -962.0632 ZZZX=           -901.3154
 ZZZY=           -996.3019 XXYY=          -6295.1658 XXZZ=          -3458.7527 YYZZ=          -4687.1292
 XXYZ=           -664.5111 YYXZ=           -623.4584 ZZXY=          -1314.2052
 N-N= 7.619618960597D+03 E-N=-3.164080117134D+04  KE= 6.838720441075D+03
  Exact polarizability:   0.000   0.000   0.000   0.000   0.000   0.000
 Approx polarizability: 436.708  15.683 460.269 -15.346   3.441 430.585
                          Isotropic Fermi Contact Couplings
        Atom                 a.u.       MegaHertz       Gauss      10(-4) cm-1
     1  Li(7)              0.00012       0.06966       0.02486       0.02324
     2  N(14)              0.00132       0.14227       0.05077       0.04746
     3  C(13)              0.00434       1.62464       0.57971       0.54192
     4  Cl(35)             0.00084       0.12293       0.04386       0.04100
     5  N(14)              0.00035       0.03742       0.01335       0.01248
     6  C(13)              0.00367       1.37545       0.49079       0.45880
     7  Cl(35)             0.00048       0.07056       0.02518       0.02354
     8  N(14)             -0.00001      -0.00136      -0.00049      -0.00045
     9  C(13)              0.00474       1.77534       0.63349       0.59219
    10  Cl(35)             0.00044       0.06464       0.02306       0.02156
    11  N(14)              0.06677       7.19133       2.56604       2.39877
    12  C(13)              0.00105       0.39255       0.14007       0.13094
    13  Cl(35)             0.00101       0.14769       0.05270       0.04926
    14  N(14)              0.06905       7.43660       2.65356       2.48058
    15  C(13)              0.00048       0.17925       0.06396       0.05979
    16  Cl(35)             0.00175       0.25624       0.09143       0.08547
    17  N(14)              0.06222       6.70129       2.39119       2.23531
    18  C(13)              0.00127       0.47633       0.16997       0.15889
    19  Cl(35)             0.00211       0.30893       0.11023       0.10305
    20  C(13)              0.00229       0.85891       0.30648       0.28650
    21  H(1)               0.00021       0.31206       0.11135       0.10409
    22  C(13)              0.00248       0.92863       0.33136       0.30976
    23  H(1)               0.00006       0.08842       0.03155       0.02949
    24  C(13)              0.00276       1.03521       0.36939       0.34531
    25  H(1)               0.00014       0.20304       0.07245       0.06773
    26  Co(59)             0.00000       0.00118       0.00042       0.00039
    27  C(13)             -0.00005      -0.01939      -0.00692      -0.00647
    28  C(13)              0.00023       0.08718       0.03111       0.02908
    29  O(17)              0.00027      -0.05477      -0.01954      -0.01827
    30  C(13)              0.00001       0.00473       0.00169       0.00158
    31  H(1)               0.00002       0.02818       0.01006       0.00940
    32  H(1)               0.00001       0.01329       0.00474       0.00443
    33  H(1)              -0.00000      -0.00275      -0.00098      -0.00092
    34  H(1)              -0.00000      -0.00287      -0.00102      -0.00096
    35  H(1)               0.00000       0.00153       0.00054       0.00051
    36  H(1)               0.00006       0.09031       0.03222       0.03012
    37  N(14)              0.00000       0.00033       0.00012       0.00011
    38  C(13)              0.00000       0.00064       0.00023       0.00021
    39  C(13)              0.00000       0.00023       0.00008       0.00008
    40  H(1)               0.00000       0.00023       0.00008       0.00008
    41  H(1)               0.00000       0.00038       0.00013       0.00013
    42  H(1)               0.00000       0.00014       0.00005       0.00005
    43  H(1)               0.00000       0.00000       0.00000       0.00000
    44  H(1)               0.00000       0.00001       0.00000       0.00000
    45  C(13)              0.00000       0.00019       0.00007       0.00006
    46  C(13)              0.00003       0.01310       0.00467       0.00437
    47  H(1)              -0.00000      -0.00005      -0.00002      -0.00002
    48  H(1)               0.00000       0.00121       0.00043       0.00040
    49  H(1)              -0.00000      -0.00001      -0.00000      -0.00000
    50  H(1)              -0.00000      -0.00235      -0.00084      -0.00078
    51  H(1)              -0.00000      -0.00076      -0.00027      -0.00025
    52  C(13)              0.00000       0.00123       0.00044       0.00041
    53  C(13)             -0.00003      -0.01276      -0.00455      -0.00426
    54  H(1)               0.00000       0.00030       0.00011       0.00010
    55  H(1)               0.00000       0.00146       0.00052       0.00049
    56  H(1)               0.00000       0.00029       0.00010       0.00010
    57  H(1)               0.00000       0.00601       0.00214       0.00200
    58  H(1)               0.00000       0.00061       0.00022       0.00020
    59  C(13)             -0.00001      -0.00275      -0.00098      -0.00092
    60  C(13)              0.00000       0.00017       0.00006       0.00006
    61  H(1)              -0.00000      -0.00060      -0.00021      -0.00020
    62  H(1)               0.00000       0.00160       0.00057       0.00053
    63  H(1)               0.00000       0.00017       0.00006       0.00006
    64  H(1)               0.00000       0.00001       0.00000       0.00000
    65  H(1)              -0.00000      -0.00051      -0.00018      -0.00017
    66  Br(79)             0.00112       0.42009       0.14990       0.14013
    67  C(13)              0.00287       1.07558       0.38380       0.35878
    68  O(17)              0.00360      -0.72803      -0.25978      -0.24284
    69  O(17)              0.06944     -14.03043      -5.00641      -4.68005
 --------------------------------------------------------
       Center         ----  Spin Dipole Couplings  ----
                      3XX-RR        3YY-RR        3ZZ-RR
 --------------------------------------------------------
     1   Atom       -0.002026      0.002153     -0.000127
     2   Atom       -0.008369      0.008854     -0.000485
     3   Atom       -0.003577      0.007814     -0.004237
     4   Atom       -0.002899      0.006025     -0.003126
     5   Atom       -0.001957      0.007568     -0.005611
     6   Atom        0.001235     -0.002308      0.001073
     7   Atom       -0.000420      0.001131     -0.000710
     8   Atom        0.010654     -0.003205     -0.007449
     9   Atom        0.006193      0.004556     -0.010749
    10   Atom        0.005573      0.003184     -0.008757
    11   Atom       -0.069209      0.115222     -0.046013
    12   Atom       -0.005696      0.020962     -0.015266
    13   Atom       -0.002061      0.005065     -0.003004
    14   Atom        0.105878     -0.006424     -0.099454
    15   Atom        0.016727     -0.012195     -0.004533
    16   Atom        0.002124     -0.010093      0.007969
    17   Atom        0.016822     -0.015807     -0.001015
    18   Atom        0.028316     -0.014877     -0.013439
    19   Atom        0.023416     -0.010502     -0.012914
    20   Atom       -0.015346      0.010200      0.005146
    21   Atom       -0.010380     -0.000039      0.010419
    22   Atom        0.007788     -0.001757     -0.006031
    23   Atom       -0.000519     -0.008814      0.009333
    24   Atom       -0.014397      0.009994      0.004403
    25   Atom       -0.012186      0.009310      0.002876
    26   Atom        0.036657     -0.034601     -0.002056
    27   Atom        0.001177     -0.001021     -0.000156
    28   Atom       -0.002011      0.000586      0.001425
    29   Atom        0.006259     -0.005276     -0.000983
    30   Atom        0.002154     -0.002163      0.000009
    31   Atom       -0.002981      0.001254      0.001727
    32   Atom       -0.001195     -0.000745      0.001940
    33   Atom        0.003763     -0.002522     -0.001240
    34   Atom        0.001465     -0.002677      0.001213
    35   Atom        0.001105     -0.001092     -0.000013
    36   Atom        0.001050      0.000664     -0.001714
    37   Atom       -0.001712      0.003612     -0.001900
    38   Atom       -0.001104      0.002212     -0.001108
    39   Atom       -0.000599      0.001279     -0.000680
    40   Atom       -0.001171      0.002183     -0.001012
    41   Atom       -0.001088      0.002090     -0.001002
    42   Atom       -0.000500      0.000995     -0.000496
    43   Atom       -0.000442      0.001109     -0.000667
    44   Atom       -0.000537      0.001126     -0.000589
    45   Atom       -0.001168      0.002304     -0.001136
    46   Atom       -0.001434      0.002282     -0.000847
    47   Atom       -0.000743      0.001610     -0.000866
    48   Atom       -0.000973      0.001876     -0.000903
    49   Atom       -0.000939      0.001322     -0.000383
    50   Atom       -0.001577      0.002471     -0.000893
    51   Atom       -0.001784      0.002541     -0.000757
    52   Atom       -0.002996      0.006048     -0.003052
[...]
    47   Atom        0.000720     -0.000155     -0.000547
    48   Atom        0.000103     -0.000025     -0.000561
    49   Atom        0.000380     -0.000217     -0.001292
    50   Atom        0.001313     -0.000766     -0.002479
    51   Atom       -0.000111      0.000040     -0.002276
    52   Atom       -0.000442     -0.000012     -0.000284
    53   Atom       -0.001470     -0.000376      0.003229
    54   Atom       -0.000555      0.000048     -0.002915
    55   Atom       -0.001050      0.000060     -0.000413
    56   Atom       -0.004772     -0.001240      0.003457
    57   Atom        0.000910      0.000367      0.007405
    58   Atom       -0.000734     -0.000276      0.002690
    59   Atom        0.002979     -0.000067     -0.000069
    60   Atom        0.002061     -0.000025     -0.000022
    61   Atom        0.004283     -0.000960     -0.001752
    62   Atom        0.003979      0.000721      0.001614
    63   Atom        0.002531     -0.000070     -0.000060
    64   Atom        0.001459     -0.000213     -0.000340
    65   Atom        0.001546      0.000214      0.000349
    66   Atom        0.001389      0.000730      0.001289
    67   Atom        0.012170      0.021268      0.017428
    68   Atom       -0.003469      0.011740      0.019792
    69   Atom       -0.016316     -0.001002     -0.103371
 --------------------------------------------------------


 ---------------------------------------------------------------------------------
              Anisotropic Spin Dipole Couplings in Principal Axis System
 ---------------------------------------------------------------------------------

       Atom             a.u.   MegaHertz   Gauss  10(-4) cm-1        Axes

              Baa    -0.0021    -0.431    -0.154    -0.144  0.8297 -0.3907  0.3988
     1 Li(7)  Bbb    -0.0020    -0.422    -0.150    -0.141 -0.5463 -0.4213  0.7239
              Bcc     0.0041     0.852     0.304     0.284  0.1148  0.8185  0.5630
 
              Baa    -0.0091    -0.350    -0.125    -0.117  0.8720 -0.3562  0.3357
     2 N(14)  Bbb    -0.0084    -0.322    -0.115    -0.107 -0.4722 -0.4318  0.7685
              Bcc     0.0174     0.672     0.240     0.224  0.1287  0.8287  0.5447
 
              Baa    -0.0067    -0.893    -0.319    -0.298 -0.6652 -0.0259  0.7462
     3 C(13)  Bbb    -0.0027    -0.366    -0.130    -0.122  0.6974 -0.3784  0.6086
              Bcc     0.0094     1.258     0.449     0.420  0.2666  0.9253  0.2698
 
              Baa    -0.0067    -0.349    -0.125    -0.116 -0.5825 -0.1584  0.7972
     4 Cl(35) Bbb    -0.0033    -0.175    -0.063    -0.058  0.7388 -0.5120  0.4381
              Bcc     0.0100     0.524     0.187     0.175  0.3388  0.8442  0.4153
 
              Baa    -0.0102    -0.394    -0.141    -0.131  0.8415 -0.4001  0.3631
     5 N(14)  Bbb    -0.0087    -0.334    -0.119    -0.112 -0.1425  0.4839  0.8635
              Bcc     0.0189     0.728     0.260     0.243  0.5212  0.7783 -0.3501
 
              Baa    -0.0083    -1.115    -0.398    -0.372  0.6456 -0.6273  0.4356
     6 C(13)  Bbb    -0.0009    -0.120    -0.043    -0.040  0.1423  0.6592  0.7383
              Bcc     0.0092     1.235     0.441     0.412  0.7503  0.4147 -0.5149
 
              Baa    -0.0070    -0.368    -0.131    -0.123  0.7118 -0.5834  0.3911
     7 Cl(35) Bbb    -0.0010    -0.050    -0.018    -0.017 -0.1077  0.4596  0.8816
              Bcc     0.0080     0.419     0.149     0.140  0.6940  0.6697 -0.2643
 
              Baa    -0.0124    -0.477    -0.170    -0.159  0.5156  0.8562 -0.0316
     8 N(14)  Bbb    -0.0106    -0.411    -0.147    -0.137  0.3133 -0.1541  0.9371
              Bcc     0.0230     0.888     0.317     0.296  0.7975 -0.4931 -0.3477
 
              Baa    -0.0094    -1.264    -0.451    -0.422  0.0155  0.0642  0.9978
     9 C(13)  Bbb     0.0015     0.205     0.073     0.069  0.5064  0.8600 -0.0632
              Bcc     0.0079     1.059     0.378     0.353  0.8622 -0.5063  0.0192
 
              Baa    -0.0084    -0.441    -0.157    -0.147  0.1175 -0.0539  0.9916
    10 Cl(35) Bbb     0.0005     0.024     0.009     0.008  0.4913  0.8709 -0.0108
              Bcc     0.0080     0.416     0.149     0.139  0.8630 -0.4884 -0.1288
 
              Baa    -0.0856    -3.300    -1.177    -1.101 -0.6665 -0.1744  0.7249
    11 N(14)  Bbb    -0.0675    -2.602    -0.928    -0.868  0.7200 -0.4026  0.5652
              Bcc     0.1530     5.901     2.106     1.969  0.1933  0.8986  0.3939
 
              Baa    -0.0185    -2.486    -0.887    -0.829  0.6946 -0.3780  0.6121
    12 C(13)  Bbb    -0.0123    -1.648    -0.588    -0.550 -0.5370  0.2938  0.7908
              Bcc     0.0308     4.134     1.475     1.379  0.4788  0.8779 -0.0011
 
              Baa    -0.0137    -0.719    -0.257    -0.240  0.7817 -0.3670  0.5042
    13 Cl(35) Bbb    -0.0055    -0.289    -0.103    -0.097 -0.1917  0.6279  0.7543
              Bcc     0.0193     1.009     0.360     0.337  0.5935  0.6863 -0.4205
 
              Baa    -0.0983    -3.792    -1.353    -1.265  0.1221 -0.0116  0.9925
    14 N(14)  Bbb    -0.0688    -2.653    -0.946    -0.885  0.5001  0.8644 -0.0515
              Bcc     0.1671     6.444     2.300     2.150  0.8573 -0.5026 -0.1113
 
              Baa    -0.0235    -3.152    -1.125    -1.051  0.5090  0.8578 -0.0718
    15 C(13)  Bbb    -0.0120    -1.606    -0.573    -0.536 -0.3097  0.2604  0.9145
              Bcc     0.0355     4.759     1.698     1.587  0.8031 -0.4432  0.3982
 
              Baa    -0.0143    -0.747    -0.267    -0.249  0.5724  0.8047 -0.1577
    16 Cl(35) Bbb    -0.0077    -0.402    -0.144    -0.134 -0.5418  0.5155  0.6639
              Bcc     0.0220     1.149     0.410     0.383  0.6155 -0.2946  0.7310
 
              Baa    -0.0863    -3.330    -1.188    -1.111  0.7411 -0.5698  0.3551
    17 N(14)  Bbb    -0.0626    -2.414    -0.861    -0.805  0.1365  0.6458  0.7512
              Bcc     0.1489     5.744     2.050     1.916  0.6574  0.5082 -0.5564
 
              Baa    -0.0203    -2.724    -0.972    -0.909  0.0550  0.7368  0.6739
    18 C(13)  Bbb    -0.0124    -1.666    -0.595    -0.556  0.3605 -0.6440  0.6747
              Bcc     0.0327     4.391     1.567     1.465  0.9311  0.2058 -0.3011
 
              Baa    -0.0161    -0.844    -0.301    -0.281  0.2462  0.4344  0.8664
    19 Cl(35) Bbb    -0.0093    -0.487    -0.174    -0.162  0.0735  0.8830 -0.4636
              Bcc     0.0254     1.330     0.475     0.444  0.9664 -0.1778 -0.1854
 
              Baa    -0.0166    -2.228    -0.795    -0.743  0.7720  0.4718 -0.4259
    20 C(13)  Bbb    -0.0131    -1.754    -0.626    -0.585  0.6285 -0.4669  0.6220
              Bcc     0.0297     3.982     1.421     1.328 -0.0947  0.7479  0.6570
 
              Baa    -0.0135    -7.191    -2.566    -2.399  0.7914 -0.3276  0.5161
    21 H(1)   Bbb    -0.0123    -6.563    -2.342    -2.189  0.5472  0.7560 -0.3592
              Bcc     0.0258    13.755     4.908     4.588 -0.2725  0.5667  0.7776
 
              Baa    -0.0190    -2.555    -0.912    -0.852  0.3973 -0.3246  0.8584
    22 C(13)  Bbb    -0.0128    -1.719    -0.613    -0.573  0.5664  0.8227  0.0490
              Bcc     0.0319     4.274     1.525     1.426  0.7221 -0.4667 -0.5107
 
              Baa    -0.0151    -8.073    -2.880    -2.693  0.4768  0.8773 -0.0550
    23 H(1)   Bbb    -0.0131    -7.000    -2.498    -2.335  0.6566 -0.3139  0.6858
              Bcc     0.0283    15.073     5.378     5.028 -0.5844  0.3631  0.7257
 
              Baa    -0.0185    -2.483    -0.886    -0.828  0.9498 -0.1940  0.2456
    24 C(13)  Bbb    -0.0103    -1.388    -0.495    -0.463 -0.0592  0.6592  0.7496
              Bcc     0.0288     3.871     1.381     1.291  0.3074  0.7265 -0.6146
 
              Baa    -0.0133    -7.119    -2.540    -2.375  0.3801  0.6144  0.6914
    25 H(1)   Bbb    -0.0119    -6.328    -2.258    -2.111  0.9249 -0.2628 -0.2749
              Bcc     0.0252    13.446     4.798     4.485  0.0128  0.7439 -0.6681
 
              Baa    -0.2333   -29.461   -10.512    -9.827  0.0211  0.9977  0.0651
    26 Co(59) Bbb    -0.1204   -15.204    -5.425    -5.071  0.9523 -0.0002 -0.3053
              Bcc     0.3537    44.665    15.937    14.899  0.3046 -0.0685  0.9500
 
              Baa    -0.0049    -0.655    -0.234    -0.218  0.7098 -0.6876 -0.1534
    27 C(13)  Bbb    -0.0046    -0.615    -0.219    -0.205 -0.3019 -0.4936  0.8156
              Bcc     0.0095     1.270     0.453     0.424  0.6365  0.5326  0.5579
 
              Baa    -0.0030    -0.398    -0.142    -0.133  0.9031 -0.3793 -0.2014
    28 C(13)  Bbb    -0.0028    -0.371    -0.132    -0.124 -0.1378 -0.7003  0.7004
              Bcc     0.0057     0.770     0.275     0.257  0.4067  0.6048  0.6847
 
              Baa    -0.0194     1.406     0.502     0.469  0.7824 -0.4618 -0.4178
    29 O(17)  Bbb    -0.0074     0.537     0.192     0.179  0.0453  0.7113 -0.7014
              Bcc     0.0269    -1.943    -0.693    -0.648  0.6211  0.5299  0.5775
 
              Baa    -0.0030    -0.405    -0.145    -0.135 -0.3687  0.9291  0.0300
    30 C(13)  Bbb    -0.0029    -0.384    -0.137    -0.128 -0.5259 -0.2351  0.8174
              Bcc     0.0059     0.789     0.281     0.263  0.7665  0.2856  0.5753
 
              Baa    -0.0036    -1.927    -0.688    -0.643  0.9468  0.0182 -0.3213
    31 H(1)   Bbb    -0.0034    -1.825    -0.651    -0.609 -0.2324  0.7294 -0.6434
              Bcc     0.0070     3.752     1.339     1.252  0.2227  0.6838  0.6948
 
              Baa    -0.0023    -1.204    -0.430    -0.402  0.9013 -0.3727 -0.2207
    32 H(1)   Bbb    -0.0021    -1.125    -0.402    -0.375  0.1837  0.7905 -0.5843
              Bcc     0.0044     2.329     0.831     0.777  0.3922  0.4861  0.7810
 
              Baa    -0.0033    -1.752    -0.625    -0.584 -0.2197  0.9755  0.0106
    33 H(1)   Bbb    -0.0032    -1.684    -0.601    -0.562 -0.4251 -0.1055  0.8990
              Bcc     0.0064     3.436     1.226     1.146  0.8781  0.1930  0.4379
 
              Baa    -0.0030    -1.577    -0.563    -0.526 -0.1612  0.9857 -0.0495
    34 H(1)   Bbb    -0.0028    -1.476    -0.527    -0.492 -0.6949 -0.0777  0.7149
              Bcc     0.0057     3.053     1.089     1.018  0.7008  0.1497  0.6975
 
              Baa    -0.0018    -0.936    -0.334    -0.312 -0.4654  0.8807  0.0882
    35 H(1)   Bbb    -0.0017    -0.908    -0.324    -0.303 -0.4594 -0.3255  0.8264
              Bcc     0.0035     1.844     0.658     0.615  0.7565  0.3441  0.5561
 
              Baa    -0.0039    -2.102    -0.750    -0.701  0.7111 -0.6973 -0.0901
    36 H(1)   Bbb    -0.0037    -1.996    -0.712    -0.666 -0.2092 -0.3321  0.9197
              Bcc     0.0077     4.098     1.462     1.367  0.6713  0.6352  0.3821
 
              Baa    -0.0020    -0.077    -0.027    -0.026  0.6840 -0.0954  0.7232
    37 N(14)  Bbb    -0.0020    -0.076    -0.027    -0.025  0.7093 -0.1449 -0.6899
              Bcc     0.0040     0.153     0.055     0.051  0.1706  0.9848 -0.0314
 
              Baa    -0.0012    -0.167    -0.060    -0.056  0.6263 -0.1969  0.7543
    38 C(13)  Bbb    -0.0012    -0.167    -0.059    -0.056  0.7661 -0.0234 -0.6422
              Bcc     0.0025     0.334     0.119     0.111  0.1441  0.9801  0.1362
 
              Baa    -0.0007    -0.099    -0.035    -0.033  0.7549 -0.2309  0.6138
    39 C(13)  Bbb    -0.0007    -0.098    -0.035    -0.033 -0.6186  0.0600  0.7834
              Bcc     0.0015     0.197     0.070     0.066  0.2177  0.9711  0.0975
 
              Baa    -0.0014    -0.760    -0.271    -0.253  0.9635 -0.2387  0.1210
    40 H(1)   Bbb    -0.0014    -0.757    -0.270    -0.252 -0.1784 -0.2361  0.9552
              Bcc     0.0028     1.516     0.541     0.506  0.1994  0.9420  0.2700
 
              Baa    -0.0011    -0.609    -0.217    -0.203  0.2829 -0.1449  0.9481
    41 H(1)   Bbb    -0.0011    -0.606    -0.216    -0.202  0.9591  0.0447 -0.2794
              Bcc     0.0023     1.216     0.434     0.406 -0.0019  0.9884  0.1516
 
              Baa    -0.0006    -0.315    -0.112    -0.105  0.8278 -0.2681  0.4927
    42 H(1)   Bbb    -0.0006    -0.315    -0.112    -0.105 -0.5259 -0.0653  0.8480
              Bcc     0.0012     0.630     0.225     0.210  0.1952  0.9612  0.1950
 
              Baa    -0.0007    -0.378    -0.135    -0.126  0.8169 -0.3316  0.4719
    43 H(1)   Bbb    -0.0007    -0.376    -0.134    -0.126 -0.4674  0.0987  0.8785
              Bcc     0.0014     0.755     0.269     0.252  0.3378  0.9383  0.0744
 
              Baa    -0.0006    -0.325    -0.116    -0.108  0.5956 -0.1028  0.7967
    44 H(1)   Bbb    -0.0006    -0.324    -0.116    -0.108  0.7869 -0.1248 -0.6044
              Bcc     0.0012     0.649     0.232     0.216  0.1615  0.9868  0.0066
 
              Baa    -0.0013    -0.177    -0.063    -0.059  0.5706  0.0922  0.8160
    45 C(13)  Bbb    -0.0013    -0.174    -0.062    -0.058  0.8073 -0.2455 -0.5367
              Bcc     0.0026     0.351     0.125     0.117  0.1509  0.9650 -0.2145
 
              Baa    -0.0016    -0.216    -0.077    -0.072  0.4695  0.3158  0.8245
    46 C(13)  Bbb    -0.0015    -0.207    -0.074    -0.069  0.8737 -0.3006 -0.3825
              Bcc     0.0032     0.423     0.151     0.141  0.1271  0.9000 -0.4170
 
              Baa    -0.0010    -0.525    -0.187    -0.175  0.6095 -0.0021  0.7927
    47 H(1)   Bbb    -0.0010    -0.520    -0.185    -0.173  0.7490 -0.3263 -0.5767
              Bcc     0.0020     1.045     0.373     0.349  0.2599  0.9453 -0.1974
 
              Baa    -0.0010    -0.541    -0.193    -0.180  0.4670  0.1512  0.8713
    48 H(1)   Bbb    -0.0010    -0.534    -0.191    -0.178  0.8836 -0.1188 -0.4530
              Bcc     0.0020     1.075     0.384     0.359  0.0351  0.9813 -0.1891
 
              Baa    -0.0010    -0.557    -0.199    -0.186  0.3946  0.3944  0.8299
    49 H(1)   Bbb    -0.0010    -0.548    -0.196    -0.183  0.9077 -0.3076 -0.2854
              Bcc     0.0021     1.105     0.394     0.369  0.1427  0.8659 -0.4794
 
              Baa    -0.0021    -1.137    -0.406    -0.379  0.4112  0.3426  0.8447
    50 H(1)   Bbb    -0.0020    -1.083    -0.387    -0.361  0.8758 -0.4056 -0.2618
              Bcc     0.0042     2.220     0.792     0.741  0.2529  0.8474 -0.4668
 
              Baa    -0.0019    -0.995    -0.355    -0.332  0.3172  0.4464  0.8367
    51 H(1)   Bbb    -0.0018    -0.967    -0.345    -0.323  0.9481 -0.1294 -0.2904
              Bcc     0.0037     1.962     0.700     0.654 -0.0213  0.8854 -0.4643
 
              Baa    -0.0032    -0.433    -0.155    -0.145  0.4426  0.0469  0.8955
    52 C(13)  Bbb    -0.0032    -0.425    -0.152    -0.142  0.8955  0.0283 -0.4441
              Bcc     0.0064     0.858     0.306     0.286 -0.0461  0.9985 -0.0295
 
              Baa    -0.0045    -0.608    -0.217    -0.203 -0.0390 -0.2539  0.9664
    53 C(13)  Bbb    -0.0045    -0.599    -0.214    -0.200  0.9928  0.1000  0.0663
              Bcc     0.0090     1.207     0.431     0.403 -0.1135  0.9620  0.2482
 
              Baa    -0.0048    -2.542    -0.907    -0.848  0.4836  0.2040  0.8512
    54 H(1)   Bbb    -0.0046    -2.453    -0.875    -0.818  0.8744 -0.0688 -0.4803
              Bcc     0.0094     4.996     1.783     1.666 -0.0395  0.9765 -0.2116
 
              Baa    -0.0021    -1.122    -0.400    -0.374  0.2797  0.1136  0.9533
    55 H(1)   Bbb    -0.0021    -1.099    -0.392    -0.367  0.9446  0.1448 -0.2944
              Bcc     0.0042     2.221     0.792     0.741 -0.1715  0.9829 -0.0668
 
              Baa    -0.0053    -2.839    -1.013    -0.947 -0.0886 -0.2847  0.9545
    56 H(1)   Bbb    -0.0051    -2.727    -0.973    -0.910  0.9374  0.3003  0.1766
              Bcc     0.0104     5.566     1.986     1.857 -0.3369  0.9104  0.2403
 
              Baa    -0.0077    -4.096    -1.462    -1.366 -0.5802 -0.2571  0.7729
    57 H(1)   Bbb    -0.0076    -4.060    -1.449    -1.354  0.8134 -0.2328  0.5331
              Bcc     0.0153     8.156     2.910     2.721  0.0428  0.9379  0.3442
 
              Baa    -0.0027    -1.423    -0.508    -0.475 -0.4370 -0.3698  0.8199
    58 H(1)   Bbb    -0.0026    -1.406    -0.502    -0.469  0.8940 -0.0781  0.4413
              Bcc     0.0053     2.829     1.009     0.944 -0.0992  0.9258  0.3648
 
              Baa    -0.0027    -0.368    -0.131    -0.123  0.8660 -0.3753  0.3305
    59 C(13)  Bbb    -0.0026    -0.353    -0.126    -0.118 -0.2984  0.1424  0.9438
              Bcc     0.0054     0.721     0.257     0.241  0.4013  0.9159 -0.0113
 
              Baa    -0.0015    -0.204    -0.073    -0.068  0.7969 -0.5083  0.3264
    60 C(13)  Bbb    -0.0015    -0.200    -0.072    -0.067 -0.2711  0.1819  0.9452
              Bcc     0.0030     0.405     0.144     0.135  0.5398  0.8418 -0.0072
 
              Baa    -0.0039    -2.080    -0.742    -0.694  0.7664 -0.2478  0.5927
    61 H(1)   Bbb    -0.0037    -1.957    -0.698    -0.653 -0.4814  0.3894  0.7853
              Bcc     0.0076     4.037     1.441     1.347  0.4254  0.8871 -0.1791
 
              Baa    -0.0036    -1.939    -0.692    -0.647  0.8747 -0.4383  0.2070
    62 H(1)   Bbb    -0.0036    -1.897    -0.677    -0.633 -0.2588 -0.0611  0.9640
              Bcc     0.0072     3.836     1.369     1.280  0.4099  0.8968  0.1668
 
              Baa    -0.0017    -0.914    -0.326    -0.305  0.7206 -0.6439  0.2572
    63 H(1)   Bbb    -0.0017    -0.889    -0.317    -0.297 -0.1792  0.1854  0.9662
              Bcc     0.0034     1.803     0.643     0.601  0.6698  0.7423 -0.0183
 
              Baa    -0.0011    -0.598    -0.213    -0.199  0.7590 -0.3848  0.5252
    64 H(1)   Bbb    -0.0011    -0.590    -0.211    -0.197 -0.3993  0.3620  0.8423
              Bcc     0.0022     1.188     0.424     0.396  0.5142  0.8491 -0.1211
 
              Baa    -0.0012    -0.623    -0.222    -0.208  0.8113 -0.5398  0.2244
    65 H(1)   Bbb    -0.0012    -0.614    -0.219    -0.205 -0.2530  0.0218  0.9672
              Bcc     0.0023     1.237     0.441     0.413  0.5270  0.8415  0.1188
 
              Baa    -0.0015    -0.197    -0.070    -0.066  0.7940 -0.5920  0.1381
    66 Br(79) Bbb    -0.0010    -0.131    -0.047    -0.044 -0.3958 -0.3310  0.8566
              Bcc     0.0024     0.328     0.117     0.109  0.4614  0.7348  0.4972
 
              Baa    -0.0244    -3.269    -1.166    -1.090  0.8742 -0.4192 -0.2449
    67 C(13)  Bbb    -0.0164    -2.199    -0.785    -0.734  0.2494  0.8205 -0.5143
              Bcc     0.0407     5.468     1.951     1.824  0.4166  0.3886  0.8219
 
              Baa    -0.0241     1.745     0.623     0.582 -0.5679 -0.4854  0.6647
    68 O(17)  Bbb    -0.0005     0.036     0.013     0.012  0.8058 -0.4924  0.3289
              Bcc     0.0246    -1.781    -0.636    -0.594  0.1676  0.7225  0.6708
 
              Baa    -0.1550    11.215     4.002     3.741  0.2809  0.9254  0.2545
    69 O(17)  Bbb    -0.0957     6.923     2.470     2.309  0.9597 -0.2681 -0.0842
              Bcc     0.2507   -18.137    -6.472    -6.050  0.0097 -0.2679  0.9634
 

 ---------------------------------------------------------------------------------


 This type of calculation cannot be archived.


 THESE ARE THE TIMES THAT TRY MENS SOULS.
 THE SUMMER SOLDIER AND THE SUNSHINE PATRIOT WILL IN THIS CRISIS,
 SHRINK FROM THE SERVICE OF HIS COUNTRY.  BUT HE THAT STANDS NOW,
 DESERVES THE LOVE AND THANKS OF MAN AND WOMAN.
 TYRANNY, LIKE HELL, IS NOT EASILY CONQUERED,
 YET WE HAVE THIS CONSOLATION WITH US,
 THAT THE HARDER THE CONFLICT, THE MORE GLORIOUS THE TRIUMPH.
 WHAT WE OBTAIN TOO CHEAP, WE ESTEEM TOO LIGHTLY, 
 'TIS DEARNESS ONLY THAT GIVES EVERYTHING ITS VALUE.

                                              -- TOM PAINE
 Job cpu time:     135 days 19 hours 30 minutes 26.0 seconds.
 Elapsed time:       2 days  4 hours 42 minutes 42.8 seconds.
 File lengths (MBytes):  RWF=   8714 Int=      0 D2E=      0 Chk=     65 Scr=      2
 Normal termination of Gaussian 16 at Wed Mar  8 22:36:24 2023.
