 Entering Gaussian System, Link 0=g16
 Input=IRC_6.com
 Output=IRC_6.log
 Initial command:
 /opt/ohpc/pub/apps/gaussian/avx2/g16/l1.exe "/scratch/g16-tmp/Gau-1620546.inp" -scrdir="/scratch/g16-tmp/"
 Entering Link 1 = /opt/ohpc/pub/apps/gaussian/avx2/g16/l1.exe PID=   1620547.
  
 Copyright (c) 1988-2017, Gaussian, Inc.  All Rights Reserved.
  
 This is part of the Gaussian(R) 16 program.  It is based on
 the Gaussian(R) 09 system (copyright 2009, Gaussian, Inc.),
 the Gaussian(R) 03 system (copyright 2003, Gaussian, Inc.),
 the Gaussian(R) 98 system (copyright 1998, Gaussian, Inc.),
 the Gaussian(R) 94 system (copyright 1995, Gaussian, Inc.),
 the Gaussian 92(TM) system (copyright 1992, Gaussian, Inc.),
 the Gaussian 90(TM) system (copyright 1990, Gaussian, Inc.),
 the Gaussian 88(TM) system (copyright 1988, Gaussian, Inc.),
 the Gaussian 86(TM) system (copyright 1986, Carnegie Mellon
 University), and the Gaussian 82(TM) system (copyright 1983,
 Carnegie Mellon University). Gaussian is a federally registered
 trademark of Gaussian, Inc.
  
 This software contains proprietary and confidential information,
 including trade secrets, belonging to Gaussian, Inc.
  
 This software is provided under written license and may be
 used, copied, transmitted, or stored only in accord with that
 written license.
  
 The following legend is applicable only to US Government
 contracts under FAR:
  
                    RESTRICTED RIGHTS LEGEND
  
 Use, reproduction and disclosure by the US Government is
 subject to restrictions as set forth in subparagraphs (a)
 and (c) of the Commercial Computer Software - Restricted
 Rights clause in FAR 52.227-19.
  
 Gaussian, Inc.
 340 Quinnipiac St., Bldg. 40, Wallingford CT 06492
  
  
 ---------------------------------------------------------------
 Warning -- This program may not be used in any manner that
 competes with the business of Gaussian, Inc. or will provide
 assistance to any competitor of Gaussian, Inc.  The licensee
 of this program is prohibited from giving any competitor of
 Gaussian, Inc. access to this program.  By using this program,
 the user acknowledges that Gaussian, Inc. is engaged in the
 business of creating and licensing software in the field of
 computational chemistry and represents and warrants to the
 licensee that it is not a competitor of Gaussian, Inc. and that
 it will not use this program in any manner prohibited above.
 ---------------------------------------------------------------
  

 Cite this work as:
 Gaussian 16, Revision B.01,
 M. J. Frisch, G. W. Trucks, H. B. Schlegel, G. E. Scuseria, 
 M. A. Robb, J. R. Cheeseman, G. Scalmani, V. Barone, 
 G. A. Petersson, H. Nakatsuji, X. Li, M. Caricato, A. V. Marenich, 
 J. Bloino, B. G. Janesko, R. Gomperts, B. Mennucci, H. P. Hratchian, 
 J. V. Ortiz, A. F. Izmaylov, J. L. Sonnenberg, D. Williams-Young, 
 F. Ding, F. Lipparini, F. Egidi, J. Goings, B. Peng, A. Petrone, 
 T. Henderson, D. Ranasinghe, V. G. Zakrzewski, J. Gao, N. Rega, 
 G. Zheng, W. Liang, M. Hada, M. Ehara, K. Toyota, R. Fukuda, 
 J. Hasegawa, M. Ishida, T. Nakajima, Y. Honda, O. Kitao, H. Nakai, 
 T. Vreven, K. Throssell, J. A. Montgomery, Jr., J. E. Peralta, 
 F. Ogliaro, M. J. Bearpark, J. J. Heyd, E. N. Brothers, K. N. Kudin, 
 V. N. Staroverov, T. A. Keith, R. Kobayashi, J. Normand, 
 K. Raghavachari, A. P. Rendell, J. C. Burant, S. S. Iyengar, 
 J. Tomasi, M. Cossi, J. M. Millam, M. Klene, C. Adamo, R. Cammi, 
 J. W. Ochterski, R. L. Martin, K. Morokuma, O. Farkas, 
 J. B. Foresman, and D. J. Fox, Gaussian, Inc., Wallingford CT, 2016.
 
 ******************************************
 Gaussian 16:  ES64L-G16RevB.01 20-Dec-2017
                 6-Mar-2023 
 ******************************************
 %nprocshared=64
 Will use up to   64 processors via shared memory.
 %mem=64GB
 %chk=IRC_6.chk
 ----------------------------------------------------------------------
 # irc=(calcfc,maxpoints=120,recalc=3) ucam-b3lyp/gen nosymm scf=(qc,ma
 xcycle=1024,vshift=100) pseudo=read
 ----------------------------------------------------------------------
 1/10=4,18=10,26=3,38=1,42=120,44=3,71=3,172=1/1,23;
 2/12=2,15=1,17=6,18=5,29=1,40=1/2;
 3/5=7,11=2,16=1,17=8,25=1,30=1,71=2,74=-40,116=2,140=1/1,2,3;
 4//1;
 5/5=2,7=1024,8=3,10=100,38=5/8;
 8/6=4,10=90,11=11/1;
 11/6=1,8=1,9=11,15=111,16=1,31=1/1,2,10;
 10/6=1,13=1,31=1/2;
 6/7=2,8=2,9=2,10=2,28=1/1;
 7/10=1,18=20,25=1,30=1/1,2,3,16;
 1/10=4,18=10,26=3,42=120,44=3,71=3/23(2);
 2/15=1,29=1/2;
 99/5=20/99;
 2/15=1,29=1/2;
 3/5=7,6=1,11=2,16=1,17=8,25=1,30=1,71=2,74=-40,82=7,116=2,140=1/1,2,3;
 4/5=5,16=3,69=1/1;
 5/5=2,7=1024,8=3,10=100,38=5/8;
 8/6=4,10=90,11=11/1;
 11/6=1,8=1,9=11,15=111,16=1,31=1/1,2,10;
 10/6=1,13=1,31=1/2;
 7/10=1,18=20,25=1,30=1/1,2,3,16;
 1/18=10,26=3,42=120,44=3,71=3/23(-8);
 2/15=1,29=1/2;
 6/7=2,8=2,9=2,10=2,19=2,28=1/1;
 99/5=20,9=1/99;
 -----
 IRC_6
 -----
 Symbolic Z-matrix:
 Charge =  0 Multiplicity = 4
 Li                   -1   -0.65844  -5.04612  -3.46453 
 N                    -1   -0.32895  -3.61427  -2.28185 
 C                    0    -1.57478  -3.55852  -1.72364 
 Cl                   0    -2.73048  -4.79593  -2.14751 
 N                    -1    2.25875   2.61303  -2.48322 
 C                    0     3.25431   1.73041  -2.2195 
 Cl                   0     4.89404   2.0235   -2.69197 
 N                    -1   -3.37903   2.02847   1.06408 
 C                    0    -3.55241   2.09724  -0.27477 
 Cl                   0    -4.95222   2.81183  -0.99842 
 N                    0    -0.49361  -1.80776  -0.96953 
 C                    0    -1.69392  -2.46342  -0.92256 
 Cl                   0    -3.06212  -1.94868  -0.04565 
 N                    0    -1.59718   1.1001    0.02651 
 C                    0    -2.48086   1.53154  -0.91995 
 Cl                   0    -2.23655   1.29059  -2.61323 
 N                    0     1.41798   0.84342  -1.3467 
 C                    0     2.75503   0.6514   -1.53174 
 Cl                   0     3.57583  -0.76786  -0.99696 
 C                    0     0.27707  -2.52738  -1.78971 
 H                    0     1.29515  -2.25209  -2.024 
 C                    0    -2.2068    1.42612   1.19431 
 H                    0    -1.76824   1.17758   2.15087 
 C                    0     1.1862    2.02934  -1.94765 
 H                    0     0.19221   2.44986  -1.99331 
 Co                   0     0.05339  -0.04706  -0.05696 
 C                    0     1.93214   0.98758   2.12282 
 C                    0     1.21345   1.90175   3.11811 
 O                    0     0.97652   0.0555    1.67062 
 C                    0     3.15862   0.29799   2.70522 
 H                    0     0.30533   2.31341   2.68288 
 H                    0     0.98747   1.3827    4.04557 
 H                    0     3.60705  -0.34034   1.94188 
 H                    0     2.87219  -0.31915   3.55767 
 H                    0     3.90231   1.03132   3.02773 
 H                    0     2.24298   1.59103   1.25793 
 N                    0     2.24804   5.77238  -0.18492 
 C                    0     1.95802   6.57388   1.07731 
 C                    0     2.96759   7.63503   1.49059 
 H                    0     1.83028   5.83766   1.87182 
 H                    0     0.99227   7.0546    0.90966 
 H                    0     2.64248   8.01905   2.46076 
 H                    0     3.97865   7.25008   1.61627 
 H                    0     2.99526   8.48166   0.80272 
 C                    0     2.89107   6.65172  -1.23617 
 C                    0     3.31528   5.94975  -2.51733 
 H                    0     3.75862   7.11524  -0.77163 
 H                    0     2.16544   7.4431   -1.44081 
 H                    0     3.63929   6.72331  -3.21813 
 H                    0     4.15676   5.27384  -2.35891 
 H                    0     2.52452   5.36992  -2.99185 
 C                    0     0.91066   5.28056  -0.74147 
 C                    0     0.03837   4.49013   0.21836 
 H                    0     1.15693   4.66739  -1.6064 
 H                    0     0.39237   6.18147  -1.07825 
 H                    0    -0.88776   4.24261  -0.307 
 H                    0     0.48665   3.53981   0.50643 
 H                    0    -0.23817   5.04522   1.11577 
 C                    0     3.10453   4.55006   0.10639 
 C                    0     4.51474   4.80972   0.60117 
 H                    0     3.10574   3.97011  -0.81534 
 H                    0     2.56461   3.98296   0.86153 
 H                    0     5.02241   3.84259   0.62047 
 H                    0     5.09564   5.46261  -0.05392 
 H                    0     4.53685   5.20129   1.61896 
 Br                   0     2.29987   3.47302   3.6372 
 C                    0     0.13282  -1.09744   2.79036 
 O                    0     0.56316  -0.96163   3.89324 
 O                    0    -0.62452  -1.62949   2.03286 
 
 IRC-IRC-IRC-IRC-IRC-IRC-IRC-IRC-IRC-IRC-IRC-IRC-IRC-IRC-IRC-IRC-IRC-IRC
 ------------------------------------------------------------------------
 INPUT DATA FOR L123
 ------------------------------------------------------------------------
 GENERAL PARAMETERS:
 Follow reaction path in both directions.
 Maximum points per path      = 120
 Step size                    =   0.100 bohr
 Integration scheme           = HPC                                 
    Redo corrector integration= Yes                                 
    DWI Weight Power          =  2
    DWI will use Hessian update vectors when possible.
    Max correction cycles     =  20
 Initial Hessian              = CalcFC
 Hessian evaluation           = Analytic every   3 predictor steps
                              = Update at all corrector steps
 Hessian updating method      = Bofill                              
 ------------------------------------------------------------------------
 IRC-IRC-IRC-IRC-IRC-IRC-IRC-IRC-IRC-IRC-IRC-IRC-IRC-IRC-IRC-IRC-IRC-IRC
 Symmetry turned off by external request.
 Stoichiometry    C21H29BrCl6CoLiN7O3(4)
 Framework group  C1[X(C21H29BrCl6CoLiN7O3)]
 Deg. of freedom   201
 Full point group                 C1      NOp   1
                          Input orientation:                          
 ---------------------------------------------------------------------
 Center     Atomic      Atomic             Coordinates (Angstroms)
 Number     Number       Type             X           Y           Z
 ---------------------------------------------------------------------
      1          3           0       -0.658442   -5.046123   -3.464528
      2          7           0       -0.328948   -3.614268   -2.281848
      3          6           0       -1.574775   -3.558516   -1.723638
      4         17           0       -2.730480   -4.795933   -2.147508
      5          7           0        2.258745    2.613032   -2.483223
      6          6           0        3.254310    1.730412   -2.219498
      7         17           0        4.894043    2.023497   -2.691966
      8          7           0       -3.379026    2.028473    1.064079
      9          6           0       -3.552410    2.097243   -0.274771
     10         17           0       -4.952222    2.811827   -0.998419
     11          7           0       -0.493607   -1.807759   -0.969529
     12          6           0       -1.693923   -2.463417   -0.922557
     13         17           0       -3.062120   -1.948678   -0.045649
     14          7           0       -1.597182    1.100101    0.026511
     15          6           0       -2.480860    1.531536   -0.919950
     16         17           0       -2.236548    1.290592   -2.613232
     17          7           0        1.417984    0.843424   -1.346698
     18          6           0        2.755026    0.651397   -1.531742
     19         17           0        3.575829   -0.767861   -0.996955
     20          6           0        0.277072   -2.527379   -1.789713
     21          1           0        1.295146   -2.252091   -2.024004
     22          6           0       -2.206797    1.426119    1.194311
     23          1           0       -1.768235    1.177575    2.150868
     24          6           0        1.186204    2.029338   -1.947654
     25          1           0        0.192205    2.449855   -1.993308
     26         27           0        0.053387   -0.047057   -0.056956
     27          6           0        1.932136    0.987578    2.122815
     28          6           0        1.213449    1.901752    3.118112
     29          8           0        0.976520    0.055502    1.670620
     30          6           0        3.158624    0.297985    2.705216
     31          1           0        0.305329    2.313407    2.682883
     32          1           0        0.987471    1.382702    4.045569
     33          1           0        3.607051   -0.340337    1.941876
     34          1           0        2.872185   -0.319148    3.557672
     35          1           0        3.902307    1.031319    3.027725
     36          1           0        2.242978    1.591027    1.257934
     37          7           0        2.248035    5.772383   -0.184924
     38          6           0        1.958019    6.573876    1.077314
     39          6           0        2.967594    7.635026    1.490590
     40          1           0        1.830279    5.837656    1.871819
     41          1           0        0.992267    7.054596    0.909658
     42          1           0        2.642482    8.019046    2.460764
     43          1           0        3.978649    7.250077    1.616269
     44          1           0        2.995264    8.481663    0.802717
     45          6           0        2.891069    6.651722   -1.236173
     46          6           0        3.315283    5.949750   -2.517328
     47          1           0        3.758616    7.115242   -0.771628
     48          1           0        2.165438    7.443099   -1.440805
     49          1           0        3.639290    6.723313   -3.218125
     50          1           0        4.156760    5.273840   -2.358906
     51          1           0        2.524520    5.369915   -2.991848
     52          6           0        0.910657    5.280562   -0.741470
     53          6           0        0.038366    4.490130    0.218355
     54          1           0        1.156927    4.667395   -1.606404
     55          1           0        0.392371    6.181470   -1.078250
     56          1           0       -0.887756    4.242615   -0.307003
     57          1           0        0.486649    3.539805    0.506428
     58          1           0       -0.238173    5.045219    1.115767
     59          6           0        3.104528    4.550056    0.106391
     60          6           0        4.514737    4.809716    0.601168
     61          1           0        3.105743    3.970109   -0.815342
     62          1           0        2.564609    3.982955    0.861533
     63          1           0        5.022414    3.842594    0.620468
     64          1           0        5.095636    5.462609   -0.053923
     65          1           0        4.536845    5.201288    1.618964
     66         35           0        2.299873    3.473018    3.637200
     67          6           0        0.132823   -1.097443    2.790363
     68          8           0        0.563157   -0.961632    3.893235
     69          8           0       -0.624519   -1.629494    2.032864
 ---------------------------------------------------------------------
 Rotational constants (GHZ):           0.0786255           0.0421232           0.0402672
 General basis read from cards:  (5D, 7F)
 ======================================================================================================
                                       Pseudopotential Parameters
 ======================================================================================================
  Center     Atomic      Valence      Angular      Power
  Number     Number     Electrons     Momentum     of R      Exponent        Coefficient   SO-Coeffient
 ======================================================================================================
    1          3
                                   No pseudopotential on this center.
    2          7
                                   No pseudopotential on this center.
    3          6
                                   No pseudopotential on this center.
    4         17
                                   No pseudopotential on this center.
    5          7
                                   No pseudopotential on this center.
    6          6
                                   No pseudopotential on this center.
    7         17
                                   No pseudopotential on this center.
    8          7
                                   No pseudopotential on this center.
    9          6
                                   No pseudopotential on this center.
   10         17
                                   No pseudopotential on this center.
   11          7
                                   No pseudopotential on this center.
   12          6
                                   No pseudopotential on this center.
   13         17
                                   No pseudopotential on this center.
   14          7
                                   No pseudopotential on this center.
   15          6
                                   No pseudopotential on this center.
   16         17
                                   No pseudopotential on this center.
   17          7
                                   No pseudopotential on this center.
   18          6
                                   No pseudopotential on this center.
   19         17
                                   No pseudopotential on this center.
   20          6
                                   No pseudopotential on this center.
   21          1
                                   No pseudopotential on this center.
   22          6
                                   No pseudopotential on this center.
   23          1
                                   No pseudopotential on this center.
   24          6
                                   No pseudopotential on this center.
   25          1
                                   No pseudopotential on this center.
   26         27           17
                                      D and up 
                                                     1      434.1076104      -10.00000000    0.00000000
                                                     2       78.8402758      -66.72402760    0.00000000
                                                     2       19.6037749      -11.71922430    0.00000000
                                      S - D
                                                     0      151.2307582        3.00000000    0.00000000
                                                     1      169.6790026       20.15531100    0.00000000
                                                     2       64.9909423      413.37622440    0.00000000
                                                     2       12.5076287      133.87277050    0.00000000
                                      P - D
                                                     0       92.7319924        5.00000000    0.00000000
                                                     1      121.1910183        6.18923530    0.00000000
                                                     2       48.6265909      326.32159190    0.00000000
                                                     2       11.9966971       73.87889700    0.00000000
   27          6
                                   No pseudopotential on this center.
   28          6
                                   No pseudopotential on this center.
   29          8
                                   No pseudopotential on this center.
   30          6
                                   No pseudopotential on this center.
   31          1
                                   No pseudopotential on this center.
   32          1
                                   No pseudopotential on this center.
   33          1
                                   No pseudopotential on this center.
   34          1
                                   No pseudopotential on this center.
   35          1
                                   No pseudopotential on this center.
   36          1
                                   No pseudopotential on this center.
   37          7
                                   No pseudopotential on this center.
   38          6
                                   No pseudopotential on this center.
   39          6
                                   No pseudopotential on this center.
   40          1
                                   No pseudopotential on this center.
   41          1
                                   No pseudopotential on this center.
   42          1
                                   No pseudopotential on this center.
   43          1
                                   No pseudopotential on this center.
   44          1
                                   No pseudopotential on this center.
   45          6
                                   No pseudopotential on this center.
   46          6
                                   No pseudopotential on this center.
   47          1
                                   No pseudopotential on this center.
   48          1
                                   No pseudopotential on this center.
   49          1
                                   No pseudopotential on this center.
   50          1
                                   No pseudopotential on this center.
   51          1
                                   No pseudopotential on this center.
   52          6
                                   No pseudopotential on this center.
   53          6
                                   No pseudopotential on this center.
   54          1
                                   No pseudopotential on this center.
   55          1
                                   No pseudopotential on this center.
   56          1
                                   No pseudopotential on this center.
   57          1
                                   No pseudopotential on this center.
   58          1
                                   No pseudopotential on this center.
   59          6
                                   No pseudopotential on this center.
   60          6
                                   No pseudopotential on this center.
   61          1
                                   No pseudopotential on this center.
   62          1
                                   No pseudopotential on this center.
   63          1
                                   No pseudopotential on this center.
   64          1
                                   No pseudopotential on this center.
   65          1
                                   No pseudopotential on this center.
   66         35
                                   No pseudopotential on this center.
   67          6
                                   No pseudopotential on this center.
   68          8
                                   No pseudopotential on this center.
   69          8
                                   No pseudopotential on this center.
 ======================================================================================================
   751 basis functions,  1546 primitive gaussians,   793 cartesian basis functions
   194 alpha electrons      191 beta electrons
       nuclear repulsion energy      7735.6079168329 Hartrees.
 NAtoms=   69 NActive=   69 NUniq=   69 SFac= 1.00D+00 NAtFMM=   60 NAOKFM=T Big=T
 Integral buffers will be    131072 words long.
 Raffenetti 2 integral format.
 Two-electron integral symmetry is turned off.
 One-electron integrals computed using PRISM.
   1 Symmetry operations used in ECPInt.
 ECPInt:  NShTT=   35245 NPrTT=  210561 LenC2=   26686 LenP2D=   82307.
 LDataN:  DoStor=T MaxTD1= 4 Len=   56
 NBasis=   751 RedAO= T EigKep=  1.38D-03  NBF=   751
 NBsUse=   751 1.00D-06 EigRej= -1.00D+00 NBFU=   751
 ExpMin= 2.30D-02 ExpMax= 5.74D+05 ExpMxC= 5.74D+03 IAcc=3 IRadAn=         5 AccDes= 0.00D+00
 Harris functional with IExCor=20419 and IRadAn=       5 diagonalized for initial guess.
 HarFok:  IExCor=20419 AccDes= 0.00D+00 IRadAn=         5 IDoV= 1 UseB2=F ITyADJ=14
 ICtDFT=  3500011 ScaDFX=  1.000000  1.000000  1.000000  1.000000
 FoFCou: FMM=F IPFlag=           0 FMFlag=      100000 FMFlg1=        2001
         NFxFlg=           0 DoJE=T BraDBF=F KetDBF=T FulRan=T
         wScrn=  0.000000 ICntrl=       500 IOpCl=  0 I1Cent=   200000004 NGrid=           0
         NMat0=    1 NMatS0=      1 NMatT0=    0 NMatD0=    1 NMtDS0=    0 NMtDT0=    0
 Symmetry not used in FoFCou.
 Initial guess <Sx>= 0.0000 <Sy>= 0.0000 <Sz>= 1.5000 <S**2>= 3.7500 S= 1.5000
 Gradient too large for Newton-Raphson -- use scaled steepest descent instead.
     Accept linear search using points  3 and  4.
 Gradient too large for Newton-Raphson -- use scaled steepest descent instead.
     Accept linear search using points  1 and  2.
 Gradient too large for Newton-Raphson -- use scaled steepest descent instead.
     Accept linear search using points  3 and  4.
 Gradient too large for Newton-Raphson -- use scaled steepest descent instead.
     Accept linear search using points  2 and  3.
 Gradient too large for Newton-Raphson -- use scaled steepest descent instead.
     Accept linear search using points  1 and  2.
 Gradient too large for Newton-Raphson -- use scaled steepest descent instead.
     Accept linear search using points  2 and  3.
 Gradient too large for Newton-Raphson -- use scaled steepest descent instead.
 Restarting incremental Fock formation.
     Minimum is close to point  2 DX=  3.54D-02 DF= -7.42D-05 DXR=  5.57D-02 DFR=  3.11D-03 which will be used.
 Gradient too large for Newton-Raphson -- use scaled steepest descent instead.
     Accept linear search using points  1 and  2.
 Gradient too large for Newton-Raphson -- use scaled steepest descent instead.
 Gradient too large for Newton-Raphson -- use scaled steepest descent instead.
 Gradient too large for Newton-Raphson -- use scaled steepest descent instead.
     Accept linear search using points  1 and  2.
 Gradient too large for Newton-Raphson -- use scaled steepest descent instead.
     Accept linear search using points  2 and  3.
 Gradient too large for Newton-Raphson -- use scaled steepest descent instead.
     Minimum is close to point  2 DX=  5.35D-02 DF= -1.41D-04 DXR=  7.10D-02 DFR=  5.07D-03 which will be used.
 Gradient too large for Newton-Raphson -- use scaled steepest descent instead.
 Restarting incremental Fock formation.
 Gradient too large for Newton-Raphson -- use scaled steepest descent instead.
     Accept linear search using points  1 and  2.
 Gradient too large for Newton-Raphson -- use scaled steepest descent instead.
     Accept linear search using points  2 and  3.
 Gradient too large for Newton-Raphson -- use scaled steepest descent instead.
     Accept linear search using points  1 and  2.
 Gradient too large for Newton-Raphson -- use scaled steepest descent instead.
     Accept linear search using points  2 and  3.
     Minimum is close to point  3 DX= -2.42D-02 DF= -2.66D-07 DXR=  1.54D-02 DFR=  1.43D-04 which will be used.
 Gradient too large for Newton-Raphson -- use scaled steepest descent instead.
     Accept linear search using points  1 and  2.
 Gradient too large for Newton-Raphson -- use scaled steepest descent instead.
 Gradient too large for Newton-Raphson -- use scaled steepest descent instead.
     Accept linear search using points  1 and  2.
 Gradient too large for Newton-Raphson -- use scaled steepest descent instead.
 Restarting incremental Fock formation.
     Minimum is close to point  3 DX=  3.64D-02 DF= -3.41D-07 DXR=  1.79D-02 DFR=  3.20D-04 which will be used.
 Gradient too large for Newton-Raphson -- use scaled steepest descent instead.
     Accept linear search using points  1 and  2.
 Gradient too large for Newton-Raphson -- use scaled steepest descent instead.
     Accept linear search using points  2 and  3.
     Minimum is close to point  3 DX= -3.82D-02 DF= -4.07D-07 DXR=  1.95D-02 DFR=  3.81D-04 which will be used.
 Gradient too large for Newton-Raphson -- use scaled steepest descent instead.
     Accept linear search using points  1 and  2.
 Gradient too large for Newton-Raphson -- use scaled steepest descent instead.
     Minimum is close to point  3 DX=  2.70D-02 DF= -2.06D-07 DXR=  1.33D-02 DFR=  1.79D-04 which will be used.
 Gradient too large for Newton-Raphson -- use scaled steepest descent instead.
     Accept linear search using points  1 and  2.
 Gradient too large for Newton-Raphson -- use scaled steepest descent instead.
     Accept linear search using points  2 and  3.
     Minimum is close to point  3 DX= -4.17D-02 DF= -5.35D-07 DXR=  2.13D-02 DFR=  4.56D-04 which will be used.
 Gradient too large for Newton-Raphson -- use scaled steepest descent instead.
     Accept linear search using points  1 and  2.
 Gradient too large for Newton-Raphson -- use scaled steepest descent instead.
     Minimum is close to point  3 DX=  2.50D-02 DF= -1.86D-07 DXR=  1.23D-02 DFR=  1.53D-04 which will be used.
 Gradient too large for Newton-Raphson -- use scaled steepest descent instead.
 Restarting incremental Fock formation.
     Accept linear search using points  1 and  2.
 Gradient too large for Newton-Raphson -- use scaled steepest descent instead.
     Accept linear search using points  2 and  3.
     Minimum is close to point  3 DX= -4.02D-02 DF= -4.89D-07 DXR=  2.05D-02 DFR=  4.22D-04 which will be used.
 Gradient too large for Newton-Raphson -- use scaled steepest descent instead.
     Accept linear search using points  1 and  2.
 Gradient too large for Newton-Raphson -- use scaled steepest descent instead.
     Minimum is close to point  3 DX=  2.58D-02 DF= -1.81D-07 DXR=  1.27D-02 DFR=  1.63D-04 which will be used.
 Gradient too large for Newton-Raphson -- use scaled steepest descent instead.
     Accept linear search using points  1 and  2.
 Gradient too large for Newton-Raphson -- use scaled steepest descent instead.
     Accept linear search using points  2 and  3.
     Minimum is close to point  3 DX= -3.73D-02 DF= -3.54D-07 DXR=  1.90D-02 DFR=  3.63D-04 which will be used.
 Gradient too large for Newton-Raphson -- use scaled steepest descent instead.
     Minimum is close to point  3 DX= -2.48D-03 DF= -2.33D-08 DXR=  4.99D-03 DFR=  2.49D-05 which will be used.
 Gradient too large for Newton-Raphson -- use scaled steepest descent instead.
     Accept linear search using points  2 and  3.
     Minimum is close to point  3 DX= -4.86D-02 DF= -5.22D-07 DXR=  2.49D-02 DFR=  6.23D-04 which will be used.
 Gradient too large for Newton-Raphson -- use scaled steepest descent instead.
     Minimum is close to point  3 DX= -4.77D-03 DF= -7.43D-08 DXR=  9.64D-03 DFR=  9.29D-05 which will be used.
 Gradient too large for Newton-Raphson -- use scaled steepest descent instead.
 Restarting incremental Fock formation.
     Accept linear search using points  2 and  3.
     Minimum is close to point  3 DX= -1.06D-01 DF= -2.17D-06 DXR=  5.62D-02 DFR=  3.18D-03 which will be used.
 Gradient too large for Newton-Raphson -- use scaled steepest descent instead.
     Minimum is close to point  3 DX= -9.59D-03 DF= -2.59D-07 DXR=  1.96D-02 DFR=  3.82D-04 which will be used.
 Gradient too large for Newton-Raphson -- use scaled steepest descent instead.
     Accept linear search using points  2 and  3.
     Minimum is close to point  3 DX= -1.21D-01 DF= -2.18D-06 DXR=  6.78D-02 DFR=  4.06D-03 which will be used.
 Gradient too large for Newton-Raphson -- use scaled steepest descent instead.
     Accept linear search using points  1 and  2.
 Gradient too large for Newton-Raphson -- use scaled steepest descent instead.
 Gradient too large for Newton-Raphson -- use scaled steepest descent instead.
     Minimum is close to point  3 DX= -1.79D-02 DF= -6.16D-07 DXR=  3.71D-02 DFR=  1.38D-03 which will be used.
 Gradient too large for Newton-Raphson -- use scaled steepest descent instead.
     Accept linear search using points  2 and  3.
 Gradient too large for Newton-Raphson -- use scaled steepest descent instead.
     Accept linear search using points  1 and  2.
 LinEq1:  Iter=  0 NonCon=     1 RMS=4.80D-05 Max=7.16D-03 NDo=     1
 AX will form     1 AO Fock derivatives at one time.
 LinEq1:  Iter=  1 NonCon=     1 RMS=3.73D-05 Max=4.37D-03 NDo=     1
 LinEq1:  Iter=  2 NonCon=     1 RMS=8.29D-06 Max=7.57D-04 NDo=     1
 LinEq1:  Iter=  3 NonCon=     1 RMS=3.50D-06 Max=3.48D-04 NDo=     1
 LinEq1:  Iter=  4 NonCon=     1 RMS=2.30D-06 Max=2.18D-04 NDo=     1
 LinEq1:  Iter=  5 NonCon=     1 RMS=1.35D-06 Max=1.23D-04 NDo=     1
 LinEq1:  Iter=  6 NonCon=     1 RMS=9.21D-07 Max=6.20D-05 NDo=     1
 LinEq1:  Iter=  7 NonCon=     1 RMS=5.89D-07 Max=3.30D-05 NDo=     1
 LinEq1:  Iter=  8 NonCon=     1 RMS=2.98D-07 Max=2.24D-05 NDo=     1
 LinEq1:  Iter=  9 NonCon=     1 RMS=2.40D-07 Max=2.04D-05 NDo=     1
 LinEq1:  Iter= 10 NonCon=     1 RMS=1.48D-07 Max=1.07D-05 NDo=     1
 LinEq1:  Iter= 11 NonCon=     1 RMS=8.18D-08 Max=5.35D-06 NDo=     1
 LinEq1:  Iter= 12 NonCon=     1 RMS=5.31D-08 Max=3.44D-06 NDo=     1
 LinEq1:  Iter= 13 NonCon=     1 RMS=2.94D-08 Max=1.73D-06 NDo=     1
 LinEq1:  Iter= 14 NonCon=     1 RMS=2.07D-08 Max=1.61D-06 NDo=     1
 LinEq1:  Iter= 15 NonCon=     1 RMS=1.58D-08 Max=1.65D-06 NDo=     1
 LinEq1:  Iter= 16 NonCon=     1 RMS=9.59D-09 Max=7.89D-07 NDo=     1
 LinEq1:  Iter= 17 NonCon=     0 RMS=4.73D-09 Max=2.39D-07 NDo=     1
 Linear equations converged to 4.637D-08 4.637D-07 after    17 iterations.
     Accept linear search using points  1 and  2.
 LinEq1:  Iter=  0 NonCon=     1 RMS=8.80D-06 Max=6.51D-04 NDo=     1
 LinEq1:  Iter=  1 NonCon=     1 RMS=8.08D-06 Max=7.41D-04 NDo=     1
 LinEq1:  Iter=  2 NonCon=     1 RMS=4.35D-06 Max=4.35D-04 NDo=     1
 LinEq1:  Iter=  3 NonCon=     1 RMS=3.80D-06 Max=3.02D-04 NDo=     1
 LinEq1:  Iter=  4 NonCon=     1 RMS=1.67D-06 Max=1.03D-04 NDo=     1
 LinEq1:  Iter=  5 NonCon=     1 RMS=1.17D-06 Max=9.44D-05 NDo=     1
 LinEq1:  Iter=  6 NonCon=     1 RMS=9.47D-07 Max=7.38D-05 NDo=     1
 LinEq1:  Iter=  7 NonCon=     1 RMS=6.72D-07 Max=5.61D-05 NDo=     1
 LinEq1:  Iter=  8 NonCon=     1 RMS=3.95D-07 Max=2.69D-05 NDo=     1
 LinEq1:  Iter=  9 NonCon=     1 RMS=2.34D-07 Max=1.51D-05 NDo=     1
 LinEq1:  Iter= 10 NonCon=     1 RMS=1.40D-07 Max=9.21D-06 NDo=     1
 LinEq1:  Iter= 11 NonCon=     1 RMS=1.09D-07 Max=9.90D-06 NDo=     1
 LinEq1:  Iter= 12 NonCon=     1 RMS=7.86D-08 Max=7.30D-06 NDo=     1
 LinEq1:  Iter= 13 NonCon=     1 RMS=4.76D-08 Max=3.24D-06 NDo=     1
 LinEq1:  Iter= 14 NonCon=     1 RMS=2.89D-08 Max=2.52D-06 NDo=     1
 LinEq1:  Iter= 15 NonCon=     1 RMS=1.73D-08 Max=1.38D-06 NDo=     1
 LinEq1:  Iter= 16 NonCon=     1 RMS=1.18D-08 Max=9.01D-07 NDo=     1
 LinEq1:  Iter= 17 NonCon=     1 RMS=7.86D-09 Max=5.31D-07 NDo=     1
 LinEq1:  Iter= 18 NonCon=     0 RMS=4.90D-09 Max=3.14D-07 NDo=     1
 Linear equations converged to 3.461D-08 3.461D-07 after    18 iterations.
 Restarting incremental Fock formation.
     Minimum is close to point  2 DX=  1.00D-03 DF= -1.73D-11 DXR=  1.00D-03 DFR=  9.57D-07 which will be used.
 LinEq1:  Iter=  0 NonCon=     1 RMS=9.55D-08 Max=9.17D-06 NDo=     1
 LinEq1:  Iter=  1 NonCon=     1 RMS=8.61D-08 Max=1.01D-05 NDo=     1
 LinEq1:  Iter=  2 NonCon=     1 RMS=5.24D-08 Max=6.79D-06 NDo=     1
 LinEq1:  Iter=  3 NonCon=     1 RMS=3.69D-08 Max=2.90D-06 NDo=     1
 LinEq1:  Iter=  4 NonCon=     1 RMS=2.35D-08 Max=1.49D-06 NDo=     1
 LinEq1:  Iter=  5 NonCon=     1 RMS=1.49D-08 Max=1.01D-06 NDo=     1
 LinEq1:  Iter=  6 NonCon=     1 RMS=9.58D-09 Max=7.18D-07 NDo=     1
 LinEq1:  Iter=  7 NonCon=     1 RMS=6.79D-09 Max=4.95D-07 NDo=     1
 LinEq1:  Iter=  8 NonCon=     1 RMS=4.84D-09 Max=2.56D-07 NDo=     1
 LinEq1:  Iter=  9 NonCon=     1 RMS=3.30D-09 Max=1.76D-07 NDo=     1
 LinEq1:  Iter= 10 NonCon=     1 RMS=2.30D-09 Max=1.63D-07 NDo=     1
 LinEq1:  Iter= 11 NonCon=     1 RMS=1.53D-09 Max=1.15D-07 NDo=     1
 LinEq1:  Iter= 12 NonCon=     1 RMS=1.16D-09 Max=8.80D-08 NDo=     1
 LinEq1:  Iter= 13 NonCon=     1 RMS=7.98D-10 Max=7.29D-08 NDo=     1
 LinEq1:  Iter= 14 NonCon=     1 RMS=5.27D-10 Max=4.08D-08 NDo=     1
 LinEq1:  Iter= 15 NonCon=     1 RMS=2.80D-10 Max=1.39D-08 NDo=     1
 LinEq1:  Iter= 16 NonCon=     1 RMS=1.77D-10 Max=1.04D-08 NDo=     1
 LinEq1:  Iter= 17 NonCon=     1 RMS=1.13D-10 Max=8.16D-09 NDo=     1
 LinEq1:  Iter= 18 NonCon=     1 RMS=7.90D-11 Max=6.28D-09 NDo=     1
 LinEq1:  Iter= 19 NonCon=     0 RMS=5.15D-11 Max=3.62D-09 NDo=     1
 Linear equations converged to 4.636D-10 4.636D-09 after    19 iterations.
 SCF Done:  E(UCAM-B3LYP) =  -6911.22250605     a.u. after   51 cycles
            Convg  =    0.3741D-06                   177 Fock formations.
              S**2 =  3.7545                  -V/T =  2.0106
 <Sx>= 0.0000 <Sy>= 0.0000 <Sz>= 1.5000 <S**2>= 3.7545 S= 1.5011
 <L.S>=  0.00000000000    
 Annihilation of the first spin contaminant:
 S**2 before annihilation     3.7545,   after     3.7500
 DoSCS=F DFT=T ScalE2(SS,OS)=  1.000000  1.000000
 Range of M.O.s used for correlation:     1   751
 NBasis=   751 NAE=   194 NBE=   191 NFC=     0 NFV=     0
 NROrb=    751 NOA=   194 NOB=   191 NVA=   557 NVB=   560
   1 Symmetry operations used in ECPInt.
 ECPInt:  NShTT=   35245 NPrTT=  210561 LenC2=   26686 LenP2D=   82307.
 LDataN:  DoStor=T MaxTD1= 5 Len=  102
 Number of processors reduced to  11 by ecpmxn.
 Symmetrizing basis deriv contribution to polar:
 IMax=3 JMax=2 DiffMx= 0.00D+00
 G2DrvN: will do    35 centers at a time, making    2 passes.
 Calling FoFCou, ICntrl=  3107 FMM=T I1Cent=   0 AccDes= 0.00D+00.
 Calling FoFCou, ICntrl=  3107 FMM=T I1Cent=   0 AccDes= 0.00D+00.
 End of G2Drv F.D. properties file   721 does not exist.
 End of G2Drv F.D. properties file   722 does not exist.
 End of G2Drv F.D. properties file   788 does not exist.
          IDoAtm=00110110111111111111111111111111111111111111111111
          IDoAtm=1111111111111111111
          Differentiating once with respect to nuclear coordinates.
 CalDSu exits because no D1Ps are significant.
          There are   198 degrees of freedom in the 1st order CPHF.  IDoFFX=6 NUNeed=     0.
    195 vectors produced by pass  0 Test12= 2.15D-13 1.00D-09 XBig12= 2.85D-01 6.41D-02.
 AX will form    96 AO Fock derivatives at one time.
    195 vectors produced by pass  1 Test12= 2.15D-13 1.00D-09 XBig12= 4.63D-02 3.77D-02.
    195 vectors produced by pass  2 Test12= 2.15D-13 1.00D-09 XBig12= 1.72D-03 4.60D-03.
    195 vectors produced by pass  3 Test12= 2.15D-13 1.00D-09 XBig12= 5.10D-05 8.39D-04.
    195 vectors produced by pass  4 Test12= 2.15D-13 1.00D-09 XBig12= 8.25D-07 1.45D-04.
    195 vectors produced by pass  5 Test12= 2.15D-13 1.00D-09 XBig12= 1.18D-08 8.82D-06.
    151 vectors produced by pass  6 Test12= 2.15D-13 1.00D-09 XBig12= 1.11D-10 9.50D-07.
     85 vectors produced by pass  7 Test12= 2.15D-13 1.00D-09 XBig12= 1.05D-12 8.30D-08.
     31 vectors produced by pass  8 Test12= 2.15D-13 1.00D-09 XBig12= 1.12D-14 5.62D-09.
 InvSVY:  IOpt=1 It=  1 EMax= 9.44D-16
 Solved reduced A of dimension  1437 with   198 vectors.
 End of Minotr F.D. properties file   721 does not exist.
 End of Minotr F.D. properties file   722 does not exist.
 End of Minotr F.D. properties file   788 does not exist.

 **********************************************************************

            Population analysis using the SCF Density.

 **********************************************************************

 Alpha  occ. eigenvalues -- -482.72552-101.64781-101.59832-101.59291-101.59186
 Alpha  occ. eigenvalues -- -101.57974-101.56171 -61.80751 -56.37721 -56.37410
 Alpha  occ. eigenvalues --  -56.37389 -19.19221 -19.19143 -19.18689 -14.55988
 Alpha  occ. eigenvalues --  -14.42166 -14.42101 -14.40329 -14.38394 -14.37815
 Alpha  occ. eigenvalues --  -14.34545 -10.38678 -10.34996 -10.34951 -10.33737
 Alpha  occ. eigenvalues --  -10.33640 -10.33190 -10.32737 -10.31486 -10.31185
 Alpha  occ. eigenvalues --  -10.30658 -10.30120 -10.29747 -10.29379 -10.28833
 Alpha  occ. eigenvalues --  -10.28584 -10.28383 -10.28361 -10.27960 -10.27517
 Alpha  occ. eigenvalues --  -10.25967 -10.21729  -9.58026  -9.52977  -9.52512
 Alpha  occ. eigenvalues --   -9.52333  -9.51127  -9.49429  -8.58946  -7.34392
 Alpha  occ. eigenvalues --   -7.33557  -7.33410  -7.29417  -7.28937  -7.28834
 Alpha  occ. eigenvalues --   -7.28423  -7.28403  -7.27963  -7.27937  -7.27741
 Alpha  occ. eigenvalues --   -7.27725  -7.27559  -7.26569  -7.26563  -7.25857
 Alpha  occ. eigenvalues --   -7.24871  -7.24852  -6.60616  -6.59503  -6.59474
 Alpha  occ. eigenvalues --   -3.92387  -2.72784  -2.72474  -2.72450  -2.71567
 Alpha  occ. eigenvalues --   -2.71567  -2.62730  -2.62364  -2.61037  -2.13996
 Alpha  occ. eigenvalues --   -1.14451  -1.12692  -1.10833  -1.07906  -1.07867
 Alpha  occ. eigenvalues --   -1.05410  -1.04664  -0.99010  -0.95770  -0.95038
 Alpha  occ. eigenvalues --   -0.93844  -0.92637  -0.91294  -0.91035  -0.91011
 Alpha  occ. eigenvalues --   -0.90271  -0.89676  -0.88700  -0.87901  -0.86179
 Alpha  occ. eigenvalues --   -0.84839  -0.80035  -0.79647  -0.77381  -0.77068
 Alpha  occ. eigenvalues --   -0.76830  -0.75163  -0.74417  -0.73669  -0.68403
 Alpha  occ. eigenvalues --   -0.67363  -0.64976  -0.64855  -0.64308  -0.62777
 Alpha  occ. eigenvalues --   -0.62290  -0.61933  -0.61589  -0.60530  -0.59304
 Alpha  occ. eigenvalues --   -0.59167  -0.58299  -0.57099  -0.56167  -0.55845
 Alpha  occ. eigenvalues --   -0.55056  -0.54281  -0.54142  -0.53359  -0.53099
 Alpha  occ. eigenvalues --   -0.52775  -0.51348  -0.51267  -0.50422  -0.50259
 Alpha  occ. eigenvalues --   -0.50018  -0.49843  -0.49505  -0.49375  -0.49052
 Alpha  occ. eigenvalues --   -0.48933  -0.48642  -0.48464  -0.48389  -0.48025
 Alpha  occ. eigenvalues --   -0.47909  -0.47722  -0.47431  -0.46860  -0.46428
 Alpha  occ. eigenvalues --   -0.46283  -0.45994  -0.45647  -0.45513  -0.44684
 Alpha  occ. eigenvalues --   -0.44646  -0.44298  -0.44009  -0.43853  -0.43692
 Alpha  occ. eigenvalues --   -0.43485  -0.42972  -0.42266  -0.41585  -0.41352
 Alpha  occ. eigenvalues --   -0.40739  -0.40499  -0.40078  -0.39650  -0.39233
 Alpha  occ. eigenvalues --   -0.38817  -0.37941  -0.37493  -0.37375  -0.37168
 Alpha  occ. eigenvalues --   -0.36624  -0.35881  -0.35260  -0.34998  -0.34380
 Alpha  occ. eigenvalues --   -0.33819  -0.33624  -0.33179  -0.33045  -0.32657
 Alpha  occ. eigenvalues --   -0.32180  -0.30649  -0.30438  -0.29611  -0.28914
 Alpha  occ. eigenvalues --   -0.27970  -0.27447  -0.25185  -0.22706
 Alpha virt. eigenvalues --   -0.04265   0.01558   0.02364   0.05555   0.06334
 Alpha virt. eigenvalues --    0.06784   0.06983   0.07553   0.08079   0.08957
 Alpha virt. eigenvalues --    0.09123   0.09612   0.10016   0.10658   0.10837
 Alpha virt. eigenvalues --    0.11416   0.11959   0.12035   0.12571   0.12732
 Alpha virt. eigenvalues --    0.13013   0.13104   0.13326   0.13709   0.13751
 Alpha virt. eigenvalues --    0.14205   0.14526   0.15068   0.15169   0.15350
 Alpha virt. eigenvalues --    0.15507   0.15773   0.15963   0.16177   0.16786
 Alpha virt. eigenvalues --    0.17184   0.17762   0.17932   0.18178   0.18974
 Alpha virt. eigenvalues --    0.19290   0.19425   0.20170   0.20897   0.21330
 Alpha virt. eigenvalues --    0.21924   0.22156   0.22376   0.23115   0.23594
 Alpha virt. eigenvalues --    0.23615   0.24005   0.24443   0.24750   0.25083
 Alpha virt. eigenvalues --    0.25166   0.26073   0.26252   0.26412   0.26995
 Alpha virt. eigenvalues --    0.27603   0.27923   0.28511   0.28831   0.29398
 Alpha virt. eigenvalues --    0.30007   0.30758   0.31062   0.31622   0.32050
 Alpha virt. eigenvalues --    0.33182   0.33412   0.33899   0.34356   0.34942
 Alpha virt. eigenvalues --    0.36021   0.37684   0.38720   0.39620   0.40488
 Alpha virt. eigenvalues --    0.41244   0.41768   0.42328   0.42901   0.43414
 Alpha virt. eigenvalues --    0.43648   0.44365   0.45413   0.46062   0.46568
 Alpha virt. eigenvalues --    0.47082   0.47291   0.47646   0.47981   0.48457
 Alpha virt. eigenvalues --    0.48796   0.49348   0.49357   0.49772   0.49932
 Alpha virt. eigenvalues --    0.50108   0.50769   0.51215   0.51473   0.51625
 Alpha virt. eigenvalues --    0.52221   0.52285   0.52908   0.53153   0.53480
 Alpha virt. eigenvalues --    0.53776   0.54928   0.55325   0.55586   0.55666
 Alpha virt. eigenvalues --    0.56272   0.56875   0.56919   0.57200   0.57810
 Alpha virt. eigenvalues --    0.58389   0.58634   0.59288   0.59582   0.60323
 Alpha virt. eigenvalues --    0.60848   0.61621   0.62433   0.62562   0.62836
 Alpha virt. eigenvalues --    0.63302   0.63727   0.64393   0.64470   0.64619
 Alpha virt. eigenvalues --    0.65043   0.65245   0.65817   0.66266   0.66673
 Alpha virt. eigenvalues --    0.66784   0.67252   0.67498   0.68347   0.68836
 Alpha virt. eigenvalues --    0.69349   0.69486   0.69791   0.70048   0.70472
 Alpha virt. eigenvalues --    0.70999   0.71348   0.72025   0.72471   0.72764
 Alpha virt. eigenvalues --    0.73304   0.73990   0.74364   0.74747   0.75374
 Alpha virt. eigenvalues --    0.75665   0.76478   0.77023   0.77523   0.77630
 Alpha virt. eigenvalues --    0.78131   0.78340   0.78682   0.79916   0.80597
 Alpha virt. eigenvalues --    0.80632   0.81226   0.81575   0.82599   0.83408
 Alpha virt. eigenvalues --    0.83885   0.84377   0.84772   0.85699   0.85825
 Alpha virt. eigenvalues --    0.86634   0.87339   0.87635   0.87912   0.88220
 Alpha virt. eigenvalues --    0.88597   0.89096   0.89371   0.89533   0.89896
 Alpha virt. eigenvalues --    0.90059   0.90524   0.91121   0.91288   0.91626
 Alpha virt. eigenvalues --    0.92071   0.92545   0.92581   0.92658   0.93135
 Alpha virt. eigenvalues --    0.93339   0.93689   0.93798   0.94026   0.94221
 Alpha virt. eigenvalues --    0.94658   0.94768   0.94849   0.95390   0.95584
 Alpha virt. eigenvalues --    0.95941   0.96076   0.96646   0.96722   0.97140
 Alpha virt. eigenvalues --    0.97457   0.97656   0.97991   0.98304   0.98878
 Alpha virt. eigenvalues --    0.99310   0.99624   0.99721   1.00601   1.00772
 Alpha virt. eigenvalues --    1.00894   1.01217   1.01386   1.01915   1.02650
 Alpha virt. eigenvalues --    1.02926   1.03093   1.03461   1.03816   1.04338
 Alpha virt. eigenvalues --    1.04602   1.04820   1.05491   1.06025   1.06416
 Alpha virt. eigenvalues --    1.06760   1.07513   1.08267   1.08550   1.08675
 Alpha virt. eigenvalues --    1.08872   1.09046   1.09738   1.10511   1.11017
 Alpha virt. eigenvalues --    1.11553   1.12123   1.12573   1.13148   1.13343
 Alpha virt. eigenvalues --    1.13645   1.14144   1.14344   1.14623   1.15696
 Alpha virt. eigenvalues --    1.16005   1.16346   1.18023   1.18103   1.18615
 Alpha virt. eigenvalues --    1.19561   1.20183   1.20440   1.20915   1.22006
 Alpha virt. eigenvalues --    1.22318   1.22988   1.23752   1.24417   1.25123
 Alpha virt. eigenvalues --    1.25763   1.26220   1.27648   1.29003   1.29806
 Alpha virt. eigenvalues --    1.30650   1.32905   1.33873   1.34559   1.35522
 Alpha virt. eigenvalues --    1.36536   1.37372   1.37619   1.38957   1.39953
 Alpha virt. eigenvalues --    1.41003   1.41641   1.41780   1.42726   1.43276
 Alpha virt. eigenvalues --    1.43948   1.45222   1.45449   1.46735   1.47236
 Alpha virt. eigenvalues --    1.47804   1.48261   1.48585   1.49657   1.49862
 Alpha virt. eigenvalues --    1.50739   1.51395   1.52003   1.52964   1.53369
 Alpha virt. eigenvalues --    1.53847   1.55502   1.55924   1.56432   1.56989
 Alpha virt. eigenvalues --    1.59141   1.59993   1.60649   1.61610   1.62278
 Alpha virt. eigenvalues --    1.63797   1.64849   1.64970   1.65831   1.66535
 Alpha virt. eigenvalues --    1.66872   1.66990   1.67848   1.68454   1.68802
 Alpha virt. eigenvalues --    1.69958   1.70102   1.71183   1.72419   1.72660
 Alpha virt. eigenvalues --    1.73335   1.73343   1.74640   1.75435   1.75590
 Alpha virt. eigenvalues --    1.76107   1.76702   1.78227   1.78668   1.79728
 Alpha virt. eigenvalues --    1.80763   1.82387   1.84558   1.85014   1.86318
 Alpha virt. eigenvalues --    1.86893   1.88006   1.88511   1.90606   1.91365
 Alpha virt. eigenvalues --    1.92033   1.92465   1.92673   1.93440   1.93995
 Alpha virt. eigenvalues --    1.96137   1.96368   1.96725   1.98102   1.99300
 Alpha virt. eigenvalues --    1.99520   1.99645   2.00613   2.01809   2.02377
 Alpha virt. eigenvalues --    2.03154   2.03238   2.03858   2.05264   2.05839
 Alpha virt. eigenvalues --    2.07134   2.08210   2.08697   2.08867   2.09270
 Alpha virt. eigenvalues --    2.09348   2.10568   2.11138   2.11692   2.11940
 Alpha virt. eigenvalues --    2.12354   2.12898   2.13264   2.13383   2.13869
 Alpha virt. eigenvalues --    2.14379   2.15416   2.15493   2.16190   2.16385
 Alpha virt. eigenvalues --    2.16828   2.17482   2.17621   2.18617   2.18828
 Alpha virt. eigenvalues --    2.19282   2.19770   2.20636   2.20682   2.20869
 Alpha virt. eigenvalues --    2.21674   2.22174   2.22749   2.23141   2.24232
 Alpha virt. eigenvalues --    2.25031   2.26750   2.27281   2.28221   2.28374
 Alpha virt. eigenvalues --    2.28989   2.29840   2.30846   2.31486   2.32329
 Alpha virt. eigenvalues --    2.33022   2.33086   2.33911   2.35060   2.35216
 Alpha virt. eigenvalues --    2.35421   2.36131   2.36299   2.37210   2.37650
 Alpha virt. eigenvalues --    2.38101   2.38339   2.39933   2.40134   2.40602
 Alpha virt. eigenvalues --    2.41738   2.42058   2.42598   2.42715   2.43581
 Alpha virt. eigenvalues --    2.44394   2.45177   2.46917   2.48128   2.48966
 Alpha virt. eigenvalues --    2.49568   2.50482   2.51223   2.52017   2.53428
 Alpha virt. eigenvalues --    2.53713   2.57086   2.57687   2.59020   2.62903
 Alpha virt. eigenvalues --    2.65478   2.66108   2.66388   2.66590   2.67137
 Alpha virt. eigenvalues --    2.68069   2.68171   2.68815   2.69079   2.69291
 Alpha virt. eigenvalues --    2.70529   2.70669   2.71140   2.71597   2.71908
 Alpha virt. eigenvalues --    2.72873   2.73167   2.73805   2.74840   2.75223
 Alpha virt. eigenvalues --    2.76079   2.76876   2.77178   2.77878   2.78048
 Alpha virt. eigenvalues --    2.79094   2.79633   2.80574   2.82021   2.82561
 Alpha virt. eigenvalues --    2.83234   2.85247   2.85433   2.86672   2.87114
 Alpha virt. eigenvalues --    2.87200   2.88024   2.88444   2.89484   2.90235
 Alpha virt. eigenvalues --    2.91031   2.91345   2.92089   2.92183   2.93026
 Alpha virt. eigenvalues --    2.93240   2.93850   2.94888   2.95372   2.95661
 Alpha virt. eigenvalues --    2.96171   2.96937   2.97672   2.98966   2.99761
 Alpha virt. eigenvalues --    3.00144   3.00900   3.01162   3.01310   3.01862
 Alpha virt. eigenvalues --    3.02071   3.04266   3.05436   3.06281   3.08076
 Alpha virt. eigenvalues --    3.12924   3.16618   3.21184   3.24216   3.24716
 Alpha virt. eigenvalues --    3.26208   3.27097   3.28633   3.30889   3.32828
 Alpha virt. eigenvalues --    3.33594   3.34103   3.36387   3.38300   3.39653
 Alpha virt. eigenvalues --    3.42946   3.44548   3.45762   3.48713   3.49623
 Alpha virt. eigenvalues --    3.49828   3.50321   3.51980   3.54820   3.55864
 Alpha virt. eigenvalues --    3.57070   3.58155   3.58388   3.59319   3.61128
 Alpha virt. eigenvalues --    3.61898   3.64286   3.64712   3.65322   3.67532
 Alpha virt. eigenvalues --    6.67221   8.61751
  Beta  occ. eigenvalues -- -482.72552-101.64780-101.59831-101.59290-101.59185
  Beta  occ. eigenvalues -- -101.57973-101.56169 -61.80751 -56.37720 -56.37410
  Beta  occ. eigenvalues --  -56.37389 -19.19204 -19.19127 -19.18470 -14.55988
  Beta  occ. eigenvalues --  -14.42158 -14.41984 -14.40191 -14.38243 -14.37810
  Beta  occ. eigenvalues --  -14.34537 -10.38675 -10.34996 -10.34951 -10.33737
  Beta  occ. eigenvalues --  -10.33633 -10.33187 -10.32736 -10.31475 -10.31185
  Beta  occ. eigenvalues --  -10.30647 -10.30120 -10.29740 -10.29376 -10.28834
  Beta  occ. eigenvalues --  -10.28584 -10.28383 -10.28354 -10.27944 -10.27517
  Beta  occ. eigenvalues --  -10.25955 -10.21725  -9.58025  -9.52976  -9.52511
  Beta  occ. eigenvalues --   -9.52332  -9.51126  -9.49428  -8.58946  -7.34391
  Beta  occ. eigenvalues --   -7.33556  -7.33409  -7.29415  -7.28936  -7.28832
  Beta  occ. eigenvalues --   -7.28422  -7.28402  -7.27961  -7.27936  -7.27740
  Beta  occ. eigenvalues --   -7.27724  -7.27557  -7.26569  -7.26562  -7.25856
  Beta  occ. eigenvalues --   -7.24869  -7.24851  -6.60615  -6.59503  -6.59473
  Beta  occ. eigenvalues --   -3.76841  -2.72784  -2.72473  -2.72450  -2.71567
  Beta  occ. eigenvalues --   -2.71567  -2.45522  -2.45417  -2.45315  -2.13996
  Beta  occ. eigenvalues --   -1.14405  -1.12692  -1.10752  -1.07840  -1.07809
  Beta  occ. eigenvalues --   -1.05283  -1.04264  -0.98958  -0.95739  -0.94980
  Beta  occ. eigenvalues --   -0.93818  -0.92586  -0.91232  -0.91011  -0.90955
  Beta  occ. eigenvalues --   -0.90271  -0.89676  -0.88614  -0.87857  -0.86074
  Beta  occ. eigenvalues --   -0.84839  -0.79948  -0.79608  -0.77380  -0.77063
  Beta  occ. eigenvalues --   -0.76791  -0.75163  -0.74359  -0.73649  -0.68402
  Beta  occ. eigenvalues --   -0.67253  -0.64901  -0.64756  -0.64204  -0.62776
  Beta  occ. eigenvalues --   -0.62272  -0.61814  -0.61488  -0.60530  -0.59186
  Beta  occ. eigenvalues --   -0.58988  -0.58295  -0.56962  -0.56092  -0.55712
  Beta  occ. eigenvalues --   -0.54612  -0.54165  -0.53741  -0.53238  -0.52970
  Beta  occ. eigenvalues --   -0.52415  -0.51298  -0.51255  -0.50311  -0.50026
  Beta  occ. eigenvalues --   -0.49672  -0.49617  -0.49411  -0.49166  -0.48893
  Beta  occ. eigenvalues --   -0.48855  -0.48505  -0.48366  -0.48150  -0.47866
  Beta  occ. eigenvalues --   -0.47707  -0.47357  -0.46338  -0.46176  -0.45930
  Beta  occ. eigenvalues --   -0.45918  -0.45537  -0.44681  -0.44294  -0.44206
  Beta  occ. eigenvalues --   -0.43905  -0.43741  -0.43670  -0.42979  -0.42294
  Beta  occ. eigenvalues --   -0.41627  -0.41199  -0.41033  -0.40489  -0.40133
  Beta  occ. eigenvalues --   -0.40095  -0.39820  -0.39194  -0.37927  -0.37718
  Beta  occ. eigenvalues --   -0.37326  -0.36379  -0.36059  -0.35789  -0.35450
  Beta  occ. eigenvalues --   -0.35061  -0.34056  -0.33797  -0.33570  -0.33150
  Beta  occ. eigenvalues --   -0.33040  -0.32786  -0.32494  -0.30876  -0.30854
  Beta  occ. eigenvalues --   -0.29645  -0.29471  -0.27785  -0.27428  -0.25176
  Beta  occ. eigenvalues --   -0.22694
  Beta virt. eigenvalues --   -0.04267   0.01034   0.01743   0.02272   0.02645
  Beta virt. eigenvalues --    0.03451   0.05707   0.06337   0.06860   0.07188
  Beta virt. eigenvalues --    0.07567   0.08145   0.09085   0.09337   0.09713
  Beta virt. eigenvalues --    0.10438   0.10931   0.10960   0.11607   0.11995
  Beta virt. eigenvalues --    0.12228   0.12615   0.12781   0.13191   0.13235
  Beta virt. eigenvalues --    0.13474   0.13747   0.14000   0.14246   0.14633
  Beta virt. eigenvalues --    0.15143   0.15249   0.15424   0.15576   0.15887
  Beta virt. eigenvalues --    0.15992   0.16204   0.16823   0.17301   0.17799
  Beta virt. eigenvalues --    0.18128   0.18235   0.19033   0.19343   0.19607
  Beta virt. eigenvalues --    0.20292   0.20976   0.21663   0.21992   0.22290
  Beta virt. eigenvalues --    0.22420   0.23324   0.23630   0.24025   0.24370
  Beta virt. eigenvalues --    0.24567   0.25034   0.25253   0.25335   0.26274
  Beta virt. eigenvalues --    0.26460   0.26551   0.27021   0.27636   0.27969
  Beta virt. eigenvalues --    0.28565   0.28963   0.29626   0.30030   0.30952
  Beta virt. eigenvalues --    0.31124   0.32008   0.32188   0.33314   0.33514
  Beta virt. eigenvalues --    0.34004   0.34432   0.35174   0.36386   0.37827
  Beta virt. eigenvalues --    0.38816   0.39686   0.40587   0.41339   0.41813
  Beta virt. eigenvalues --    0.42527   0.42950   0.43444   0.43683   0.44558
  Beta virt. eigenvalues --    0.45644   0.46141   0.46643   0.47116   0.47424
  Beta virt. eigenvalues --    0.47679   0.48028   0.48484   0.48820   0.49385
  Beta virt. eigenvalues --    0.49391   0.49831   0.49943   0.50120   0.50797
  Beta virt. eigenvalues --    0.51254   0.51530   0.51675   0.52243   0.52320
  Beta virt. eigenvalues --    0.52946   0.53198   0.53501   0.53818   0.54973
  Beta virt. eigenvalues --    0.55352   0.55629   0.55697   0.56353   0.56964
  Beta virt. eigenvalues --    0.57042   0.57268   0.57835   0.58443   0.58691
  Beta virt. eigenvalues --    0.59365   0.59622   0.60403   0.60914   0.61729
  Beta virt. eigenvalues --    0.62446   0.62634   0.62932   0.63381   0.63770
  Beta virt. eigenvalues --    0.64445   0.64523   0.64680   0.65079   0.65311
  Beta virt. eigenvalues --    0.65896   0.66321   0.66757   0.66836   0.67316
  Beta virt. eigenvalues --    0.67573   0.68455   0.68909   0.69431   0.69559
  Beta virt. eigenvalues --    0.69884   0.70126   0.70536   0.71047   0.71416
  Beta virt. eigenvalues --    0.72078   0.72655   0.72857   0.73361   0.74085
  Beta virt. eigenvalues --    0.74478   0.74809   0.75493   0.75729   0.76599
  Beta virt. eigenvalues --    0.77234   0.77609   0.77759   0.78157   0.78446
  Beta virt. eigenvalues --    0.78812   0.80013   0.80659   0.80733   0.81298
  Beta virt. eigenvalues --    0.81669   0.82743   0.83594   0.83897   0.84623
  Beta virt. eigenvalues --    0.84831   0.85875   0.85884   0.86750   0.87386
  Beta virt. eigenvalues --    0.87827   0.87972   0.88292   0.88708   0.89222
  Beta virt. eigenvalues --    0.89582   0.89661   0.89932   0.90225   0.90569
  Beta virt. eigenvalues --    0.91283   0.91314   0.91735   0.92125   0.92588
  Beta virt. eigenvalues --    0.92634   0.92822   0.93216   0.93431   0.93844
  Beta virt. eigenvalues --    0.93958   0.94067   0.94308   0.94799   0.94876
  Beta virt. eigenvalues --    0.94937   0.95521   0.95672   0.96029   0.96150
  Beta virt. eigenvalues --    0.96854   0.96864   0.97250   0.97626   0.97747
  Beta virt. eigenvalues --    0.98281   0.98372   0.98941   0.99629   0.99807
  Beta virt. eigenvalues --    1.00142   1.00813   1.00846   1.00991   1.01302
  Beta virt. eigenvalues --    1.01465   1.02223   1.02794   1.03215   1.03303
  Beta virt. eigenvalues --    1.03605   1.03847   1.04520   1.04654   1.05136
  Beta virt. eigenvalues --    1.05682   1.06302   1.06650   1.06987   1.07611
  Beta virt. eigenvalues --    1.08363   1.08723   1.08797   1.08938   1.09323
  Beta virt. eigenvalues --    1.10018   1.10669   1.11351   1.11754   1.12270
  Beta virt. eigenvalues --    1.12915   1.13463   1.13508   1.13767   1.14333
  Beta virt. eigenvalues --    1.14715   1.15062   1.16033   1.16092   1.16466
  Beta virt. eigenvalues --    1.18247   1.18409   1.18787   1.19725   1.20350
  Beta virt. eigenvalues --    1.20588   1.21017   1.22145   1.22568   1.23145
  Beta virt. eigenvalues --    1.24096   1.24567   1.25208   1.25896   1.26404
  Beta virt. eigenvalues --    1.27695   1.29240   1.30047   1.30760   1.32977
  Beta virt. eigenvalues --    1.34028   1.34612   1.35727   1.36685   1.37457
  Beta virt. eigenvalues --    1.37738   1.39056   1.40080   1.41059   1.41689
  Beta virt. eigenvalues --    1.41866   1.42781   1.43322   1.44022   1.45259
  Beta virt. eigenvalues --    1.45646   1.46819   1.47288   1.47836   1.48357
  Beta virt. eigenvalues --    1.48625   1.49724   1.50106   1.50769   1.51484
  Beta virt. eigenvalues --    1.52087   1.53068   1.53537   1.53916   1.55591
  Beta virt. eigenvalues --    1.55961   1.56481   1.57163   1.59178   1.60046
  Beta virt. eigenvalues --    1.60716   1.61675   1.62281   1.63873   1.64948
  Beta virt. eigenvalues --    1.65020   1.65885   1.66599   1.66913   1.67019
  Beta virt. eigenvalues --    1.67882   1.68525   1.68910   1.70002   1.70262
  Beta virt. eigenvalues --    1.71270   1.72520   1.72673   1.73470   1.73532
  Beta virt. eigenvalues --    1.74683   1.75499   1.75666   1.76232   1.76782
  Beta virt. eigenvalues --    1.78371   1.78812   1.79898   1.80792   1.82509
  Beta virt. eigenvalues --    1.84671   1.85083   1.86360   1.86931   1.88027
  Beta virt. eigenvalues --    1.88691   1.90620   1.91468   1.92162   1.92497
  Beta virt. eigenvalues --    1.92746   1.93493   1.94024   1.96151   1.96428
  Beta virt. eigenvalues --    1.96761   1.98131   1.99346   1.99588   1.99667
  Beta virt. eigenvalues --    2.00719   2.01924   2.02522   2.03219   2.03283
  Beta virt. eigenvalues --    2.03872   2.05378   2.05982   2.07137   2.08214
  Beta virt. eigenvalues --    2.08738   2.08905   2.09320   2.09356   2.10573
  Beta virt. eigenvalues --    2.11140   2.11747   2.11985   2.12372   2.12935
  Beta virt. eigenvalues --    2.13307   2.13434   2.13919   2.14399   2.15424
  Beta virt. eigenvalues --    2.15530   2.16259   2.16395   2.16835   2.17500
  Beta virt. eigenvalues --    2.17658   2.18654   2.18849   2.19318   2.19833
  Beta virt. eigenvalues --    2.20660   2.20738   2.20892   2.21705   2.22206
  Beta virt. eigenvalues --    2.22818   2.23162   2.24248   2.25039   2.26818
  Beta virt. eigenvalues --    2.27342   2.28237   2.28489   2.28990   2.29888
  Beta virt. eigenvalues --    2.30885   2.31491   2.32334   2.33033   2.33136
  Beta virt. eigenvalues --    2.33935   2.35103   2.35264   2.35500   2.36185
  Beta virt. eigenvalues --    2.36336   2.37271   2.37675   2.38155   2.38411
  Beta virt. eigenvalues --    2.39990   2.40174   2.40648   2.41781   2.42092
  Beta virt. eigenvalues --    2.42630   2.42786   2.43599   2.44406   2.45254
  Beta virt. eigenvalues --    2.46937   2.48135   2.49009   2.49589   2.50524
  Beta virt. eigenvalues --    2.51298   2.52025   2.53454   2.53728   2.57119
  Beta virt. eigenvalues --    2.57740   2.59028   2.62905   2.65524   2.66166
  Beta virt. eigenvalues --    2.66423   2.66606   2.67183   2.68123   2.68200
  Beta virt. eigenvalues --    2.68869   2.69126   2.69329   2.70587   2.70705
  Beta virt. eigenvalues --    2.71182   2.71639   2.71954   2.72891   2.73241
  Beta virt. eigenvalues --    2.73859   2.74887   2.75274   2.76099   2.76885
  Beta virt. eigenvalues --    2.77207   2.77908   2.78092   2.79118   2.79647
  Beta virt. eigenvalues --    2.80669   2.82068   2.82576   2.83239   2.85249
  Beta virt. eigenvalues --    2.85463   2.86738   2.87125   2.87233   2.88040
  Beta virt. eigenvalues --    2.88476   2.89541   2.90262   2.91051   2.91384
  Beta virt. eigenvalues --    2.92103   2.92271   2.93054   2.93244   2.93866
  Beta virt. eigenvalues --    2.94945   2.95385   2.95669   2.96177   2.96967
  Beta virt. eigenvalues --    2.97674   2.98977   2.99821   3.00169   3.00947
  Beta virt. eigenvalues --    3.01171   3.01364   3.01904   3.02081   3.04300
  Beta virt. eigenvalues --    3.05478   3.06321   3.08114   3.12956   3.16702
  Beta virt. eigenvalues --    3.21230   3.24217   3.24767   3.26209   3.27157
  Beta virt. eigenvalues --    3.28633   3.30892   3.32848   3.33603   3.34104
  Beta virt. eigenvalues --    3.36388   3.38300   3.39658   3.42947   3.44549
  Beta virt. eigenvalues --    3.45762   3.48724   3.49625   3.49829   3.50321
  Beta virt. eigenvalues --    3.51980   3.54824   3.55865   3.57072   3.58156
  Beta virt. eigenvalues --    3.58395   3.59321   3.61162   3.61899   3.64311
  Beta virt. eigenvalues --    3.64730   3.65353   3.67535   6.65993   8.61751
          Condensed to atoms (all electrons):
          Atomic-Atomic Spin Densities.
 Mulliken charges and spin densities:
               1          2
     1  Li   0.549123   0.000571
     2  N   -0.500296   0.002422
     3  C    0.063307   0.002793
     4  Cl   0.080851   0.001003
     5  N   -0.426784   0.001116
     6  C   -0.010730   0.005782
     7  Cl  -0.037322   0.001039
     8  N   -0.377321   0.002990
     9  C    0.007308   0.008313
    10  Cl  -0.039032   0.001207
    11  N   -0.483442   0.040494
    12  C    0.076697   0.000287
    13  Cl   0.074672   0.000638
    14  N   -0.524481   0.060172
    15  C    0.011930  -0.003706
    16  Cl  -0.020730   0.000485
    17  N   -0.481361   0.047542
    18  C    0.029608  -0.002693
    19  Cl  -0.003420   0.000454
    20  C    0.234086   0.004559
    21  H    0.141893   0.000449
    22  C    0.182985   0.003471
    23  H    0.098158   0.000278
    24  C    0.186906   0.001504
    25  H    0.109495   0.000520
    26  Co   0.767024   2.739786
    27  C    0.233506   0.000749
    28  C   -0.205744   0.001114
    29  O   -0.685658   0.063882
    30  C   -0.335439   0.001792
    31  H    0.152302  -0.000124
    32  H    0.188034  -0.000086
    33  H    0.124726  -0.000062
    34  H    0.137287  -0.000089
    35  H    0.094478   0.000802
    36  H    0.076427   0.001697
    37  N   -0.380359  -0.000004
    38  C   -0.070271   0.000003
    39  C   -0.346524   0.000000
    40  H    0.171738   0.000003
    41  H    0.144824   0.000000
    42  H    0.144784   0.000000
    43  H    0.134951   0.000000
    44  H    0.126472  -0.000000
    45  C   -0.067634   0.000001
    46  C   -0.347640   0.000017
    47  H    0.144193   0.000001
    48  H    0.134447   0.000000
    49  H    0.126472   0.000005
    50  H    0.150341  -0.000003
    51  H    0.168568   0.000019
    52  C   -0.087981   0.000012
    53  C   -0.351844   0.000094
    54  H    0.181909   0.000012
    55  H    0.130556   0.000001
    56  H    0.172629  -0.000004
    57  H    0.151413  -0.000272
    58  H    0.127499   0.000001
    59  C   -0.083901   0.000060
    60  C   -0.343674   0.000001
    61  H    0.186495  -0.000022
    62  H    0.154704  -0.000007
    63  H    0.161627  -0.000001
    64  H    0.115048   0.000001
    65  H    0.127501  -0.000001
    66  Br  -0.220658   0.000847
    67  C    0.699284  -0.000021
    68  O   -0.427730   0.005919
    69  O   -0.416277   0.002190
 Sum of Mulliken charges =  -0.00000   3.00000
 Mulliken charges and spin densities with hydrogens summed into heavy atoms:
               1          2
     1  Li   0.549123   0.000571
     2  N   -0.500296   0.002422
     3  C    0.063307   0.002793
     4  Cl   0.080851   0.001003
     5  N   -0.426784   0.001116
     6  C   -0.010730   0.005782
     7  Cl  -0.037322   0.001039
     8  N   -0.377321   0.002990
     9  C    0.007308   0.008313
    10  Cl  -0.039032   0.001207
    11  N   -0.483442   0.040494
    12  C    0.076697   0.000287
    13  Cl   0.074672   0.000638
    14  N   -0.524481   0.060172
    15  C    0.011930  -0.003706
    16  Cl  -0.020730   0.000485
    17  N   -0.481361   0.047542
    18  C    0.029608  -0.002693
    19  Cl  -0.003420   0.000454
    20  C    0.375979   0.005007
    22  C    0.281143   0.003749
    24  C    0.296401   0.002024
    26  Co   0.767024   2.739786
    27  C    0.309933   0.002446
    28  C    0.134591   0.000903
    29  O   -0.685658   0.063882
    30  C    0.021052   0.002443
    37  N   -0.380359  -0.000004
    38  C    0.246291   0.000006
    39  C    0.059683   0.000000
    45  C    0.211007   0.000002
    46  C    0.097740   0.000037
    52  C    0.224484   0.000025
    53  C    0.099697  -0.000181
    59  C    0.257298   0.000031
    60  C    0.060501  -0.000001
    66  Br  -0.220658   0.000847
    67  C    0.699284  -0.000021
    68  O   -0.427730   0.005919
    69  O   -0.416277   0.002190
 Electronic spatial extent (au):  <R**2>=          31690.4202
 Charge=             -0.0000 electrons
 Dipole moment (field-independent basis, Debye):
    X=              8.4563    Y=              3.1516    Z=             -8.6474  Tot=             12.4987
 Quadrupole moment (field-independent basis, Debye-Ang):
   XX=           -324.7609   YY=           -139.2964   ZZ=           -292.1570
   XY=             52.3738   XZ=             10.7375   YZ=             50.7297
 Traceless Quadrupole moment (field-independent basis, Debye-Ang):
   XX=            -72.6895   YY=            112.7750   ZZ=            -40.0856
   XY=             52.3738   XZ=             10.7375   YZ=             50.7297
 Octapole moment (field-independent basis, Debye-Ang**2):
  XXX=           -306.9775  YYY=           -783.4945  ZZZ=            -29.0685  XYY=            120.2447
  XXY=           -366.3176  XXZ=             78.0068  XZZ=           -192.6906  YZZ=           -576.5021
  YYZ=           -222.1809  XYZ=            -16.6516
 Hexadecapole moment (field-independent basis, Debye-Ang**3):
 XXXX=         -13519.9525 YYYY=         -13028.5563 ZZZZ=          -7015.7072 XXXY=          -2897.3070
 XXXZ=           -304.1090 YYYX=          -1501.7610 YYYZ=            487.3269 ZZZX=           -410.4697
 ZZZY=            -76.6013 XXYY=          -4891.8629 XXZZ=          -3546.1413 YYZZ=          -3475.4513
 XXYZ=           -263.3196 YYXZ=            -21.9384 ZZXY=          -1085.3953
 N-N= 7.735607916833D+03 E-N=-3.187280055497D+04  KE= 6.838700091478D+03
  Exact polarizability:   0.000   0.000   0.000   0.000   0.000   0.000
 Approx polarizability: 461.230  -1.058 424.408  -9.602  11.986 419.333
                          Isotropic Fermi Contact Couplings
        Atom                 a.u.       MegaHertz       Gauss      10(-4) cm-1
     1  Li(7)              0.00010       0.06069       0.02166       0.02024
     2  N(14)              0.00171       0.18373       0.06556       0.06129
     3  C(13)              0.00395       1.47957       0.52795       0.49353
     4  Cl(35)             0.00071       0.10321       0.03683       0.03443
     5  N(14)              0.00029       0.03119       0.01113       0.01040
     6  C(13)              0.00381       1.42906       0.50993       0.47668
     7  Cl(35)             0.00052       0.07550       0.02694       0.02518
     8  N(14)              0.00011       0.01180       0.00421       0.00394
     9  C(13)              0.00446       1.67288       0.59693       0.55801
    10  Cl(35)             0.00041       0.06038       0.02155       0.02014
    11  N(14)              0.06139       6.61232       2.35944       2.20563
    12  C(13)              0.00050       0.18716       0.06678       0.06243
    13  Cl(35)             0.00001       0.00213       0.00076       0.00071
    14  N(14)              0.06998       7.53691       2.68936       2.51404
    15  C(13)              0.00077       0.28764       0.10264       0.09595
    16  Cl(35)             0.00117       0.17131       0.06113       0.05714
    17  N(14)              0.07004       7.54381       2.69182       2.51635
    18  C(13)              0.00113       0.42392       0.15126       0.14140
    19  Cl(35)             0.00131       0.19207       0.06854       0.06407
    20  C(13)              0.00215       0.80667       0.28784       0.26908
    21  H(1)               0.00020       0.29913       0.10674       0.09978
    22  C(13)              0.00204       0.76397       0.27260       0.25483
    23  H(1)               0.00010       0.14961       0.05338       0.04990
    24  C(13)              0.00131       0.49074       0.17511       0.16369
    25  H(1)               0.00017       0.25516       0.09105       0.08511
    26  Co(59)             0.00000       0.00164       0.00059       0.00055
    27  C(13)              0.00218       0.81614       0.29122       0.27223
    28  C(13)              0.00126       0.47065       0.16794       0.15699
    29  O(17)              0.08323     -16.81826      -6.00117      -5.60997
    30  C(13)              0.00157       0.58688       0.20941       0.19576
    31  H(1)              -0.00002      -0.03716      -0.01326      -0.01240
    32  H(1)              -0.00003      -0.04925      -0.01757      -0.01643
    33  H(1)              -0.00002      -0.03275      -0.01169      -0.01093
    34  H(1)              -0.00003      -0.03830      -0.01367      -0.01278
    35  H(1)               0.00027       0.39559       0.14116       0.13195
    36  H(1)               0.00063       0.93289       0.33288       0.31118
    37  N(14)             -0.00000      -0.00036      -0.00013      -0.00012
    38  C(13)              0.00001       0.00292       0.00104       0.00097
    39  C(13)              0.00000       0.00010       0.00003       0.00003
    40  H(1)              -0.00000      -0.00005      -0.00002      -0.00002
    41  H(1)               0.00000       0.00015       0.00005       0.00005
    42  H(1)               0.00000       0.00012       0.00004       0.00004
    43  H(1)               0.00000       0.00004       0.00002       0.00001
    44  H(1)              -0.00000      -0.00001      -0.00000      -0.00000
    45  C(13)              0.00000       0.00049       0.00018       0.00016
    46  C(13)              0.00002       0.00664       0.00237       0.00221
    47  H(1)               0.00000       0.00043       0.00015       0.00014
    48  H(1)               0.00000       0.00026       0.00009       0.00009
    49  H(1)               0.00000       0.00189       0.00067       0.00063
    50  H(1)               0.00000       0.00106       0.00038       0.00035
    51  H(1)               0.00000       0.00090       0.00032       0.00030
    52  C(13)             -0.00000      -0.00094      -0.00033      -0.00031
    53  C(13)             -0.00004      -0.01549      -0.00553      -0.00517
    54  H(1)              -0.00000      -0.00028      -0.00010      -0.00009
    55  H(1)               0.00000       0.00163       0.00058       0.00054
    56  H(1)               0.00000       0.00333       0.00119       0.00111
    57  H(1)               0.00001       0.01050       0.00375       0.00350
    58  H(1)               0.00000       0.00202       0.00072       0.00067
    59  C(13)             -0.00003      -0.01029      -0.00367      -0.00343
    60  C(13)             -0.00000      -0.00043      -0.00015      -0.00014
    61  H(1)              -0.00000      -0.00217      -0.00077      -0.00072
    62  H(1)               0.00000       0.00093       0.00033       0.00031
    63  H(1)               0.00000       0.00060       0.00021       0.00020
    64  H(1)               0.00000       0.00112       0.00040       0.00037
    65  H(1)               0.00000       0.00186       0.00066       0.00062
    66  Br(79)             0.00015       0.05467       0.01951       0.01824
    67  C(13)             -0.00039      -0.14761      -0.05267      -0.04924
    68  O(17)              0.00127      -0.25620      -0.09142      -0.08546
    69  O(17)              0.00680      -1.37362      -0.49014      -0.45819
 --------------------------------------------------------
       Center         ----  Spin Dipole Couplings  ----
                      3XX-RR        3YY-RR        3ZZ-RR
 --------------------------------------------------------
     1   Atom       -0.001988      0.002063     -0.000075
     2   Atom       -0.009060      0.010035     -0.000975
     3   Atom       -0.003534      0.005800     -0.002266
     4   Atom       -0.004443      0.006060     -0.001617
     5   Atom       -0.001409      0.005971     -0.004562
     6   Atom        0.001181     -0.002598      0.001417
     7   Atom        0.001088     -0.000248     -0.000840
     8   Atom        0.015540     -0.007516     -0.008024
     9   Atom        0.006012      0.003610     -0.009622
    10   Atom        0.006614      0.001583     -0.008197
    11   Atom       -0.066320      0.090772     -0.024452
    12   Atom        0.003850      0.009435     -0.013285
    13   Atom        0.010710     -0.001824     -0.008886
    14   Atom        0.095357      0.001963     -0.097320
    15   Atom        0.014856     -0.010211     -0.004645
    16   Atom        0.000261     -0.009856      0.009595
    17   Atom        0.015463     -0.016215      0.000752
    18   Atom        0.025773     -0.013983     -0.011789
    19   Atom        0.016520     -0.006169     -0.010351
    20   Atom       -0.015995      0.013247      0.002748
    21   Atom       -0.006110      0.004778      0.001331
    22   Atom        0.010270     -0.003767     -0.006503
    23   Atom       -0.000053     -0.008183      0.008237
    24   Atom       -0.012179      0.009538      0.002641
    25   Atom       -0.012697      0.011477      0.001220
    26   Atom       -0.333492      0.157636      0.175856
    27   Atom        0.004582     -0.008687      0.004106
    28   Atom       -0.005035     -0.001920      0.006956
    29   Atom       -0.031845     -0.081867      0.113712
    30   Atom        0.006461     -0.007120      0.000659
    31   Atom       -0.008885      0.002856      0.006028
    32   Atom       -0.004624     -0.003425      0.008049
    33   Atom        0.008626     -0.006456     -0.002170
    34   Atom        0.000796     -0.004726      0.003930
    35   Atom        0.002793     -0.002925      0.000131
    36   Atom        0.008419     -0.001382     -0.007037
    37   Atom       -0.001160      0.002973     -0.001813
    38   Atom       -0.001009      0.002204     -0.001195
    39   Atom       -0.000484      0.001164     -0.000680
    40   Atom       -0.001276      0.002482     -0.001206
    41   Atom       -0.001104      0.002211     -0.001107
    42   Atom       -0.000478      0.000966     -0.000488
    43   Atom       -0.000263      0.000910     -0.000647
    44   Atom       -0.000408      0.000987     -0.000579
    45   Atom       -0.000623      0.001645     -0.001023
    46   Atom       -0.000474      0.001258     -0.000783
    47   Atom       -0.000317      0.001131     -0.000814
    48   Atom       -0.000705      0.001520     -0.000815
    49   Atom       -0.000350      0.000795     -0.000445
    50   Atom       -0.000014      0.000885     -0.000871
    51   Atom       -0.000910      0.001568     -0.000658
    52   Atom       -0.002508      0.005092     -0.002584
    53   Atom       -0.004538      0.009136     -0.004598
    54   Atom       -0.002860      0.005298     -0.002438
    55   Atom       -0.001712      0.003321     -0.001609
    56   Atom       -0.004376      0.009510     -0.005134
    57   Atom       -0.008286      0.016482     -0.008197
    58   Atom       -0.002992      0.005606     -0.002614
    59   Atom       -0.000285      0.002783     -0.002497
    60   Atom        0.000524      0.000932     -0.001456
    61   Atom        0.000143      0.002911     -0.003054
    62   Atom       -0.000817      0.004221     -0.003404
    63   Atom        0.001430      0.000211     -0.001642
    64   Atom        0.000379      0.000678     -0.001057
    65   Atom        0.000229      0.000794     -0.001023
    66   Atom       -0.006032      0.007520     -0.001488
    67   Atom       -0.016138     -0.007974      0.024112
    68   Atom       -0.008019      0.004551      0.003468
    69   Atom       -0.026958     -0.007251      0.034209
 --------------------------------------------------------
                        XY            XZ            YZ
 --------------------------------------------------------
     1   Atom        0.000573      0.000398      0.002877
     2   Atom        0.001196      0.002464      0.009297
     3   Atom        0.004587      0.002945      0.004448
     4   Atom        0.003895      0.002703      0.004027
     5   Atom        0.010194     -0.007150     -0.009997
     6   Atom        0.005959     -0.005371     -0.000365
     7   Atom        0.007239     -0.003135     -0.001115
     8   Atom       -0.009816     -0.010348      0.003043
     9   Atom       -0.002909      0.000292     -0.000540
    10   Atom       -0.001923     -0.001746      0.001043
    11   Atom        0.047832      0.031765      0.086915
    12   Atom        0.020877      0.004931      0.007545
    13   Atom        0.007704     -0.003560      0.002280
    14   Atom       -0.108380     -0.023016      0.014132
    15   Atom       -0.021604      0.015918     -0.007080
    16   Atom       -0.007741      0.012587     -0.007685
[...]
    40   Atom        0.001186      0.000381      0.001289
    41   Atom        0.000421      0.000055      0.000436
    42   Atom        0.000498      0.000150      0.000479
    43   Atom        0.000860      0.000187      0.000357
    44   Atom        0.000527      0.000048      0.000145
    45   Atom        0.001125     -0.000205     -0.000488
    46   Atom        0.001285     -0.000520     -0.000977
    47   Atom        0.000986     -0.000104     -0.000203
    48   Atom        0.000653     -0.000127     -0.000459
    49   Atom        0.000813     -0.000385     -0.000746
    50   Atom        0.001593     -0.000679     -0.000895
    51   Atom        0.001373     -0.000748     -0.001672
    52   Atom        0.001163     -0.000170     -0.000967
    53   Atom       -0.000031     -0.000022      0.000867
    54   Atom        0.001849     -0.000644     -0.002766
    55   Atom        0.000229     -0.000045     -0.000819
    56   Atom       -0.003078      0.000127     -0.000801
    57   Atom        0.002989      0.000457      0.003897
    58   Atom       -0.000457     -0.000099      0.002002
    59   Atom        0.003509      0.000098      0.000196
    60   Atom        0.002214      0.000282      0.000321
    61   Atom        0.004627     -0.000844     -0.001068
    62   Atom        0.004812      0.001072      0.001774
    63   Atom        0.002476      0.000408      0.000331
    64   Atom        0.001573     -0.000009     -0.000005
    65   Atom        0.001698      0.000517      0.000620
    66   Atom        0.002473      0.002618      0.005973
    67   Atom        0.005538      0.008958     -0.013043
    68   Atom        0.017819      0.004883      0.003025
    69   Atom        0.018668     -0.031670     -0.155585
 --------------------------------------------------------


 ---------------------------------------------------------------------------------
              Anisotropic Spin Dipole Couplings in Principal Axis System
 ---------------------------------------------------------------------------------

       Atom             a.u.   MegaHertz   Gauss  10(-4) cm-1        Axes

              Baa    -0.0021    -0.439    -0.157    -0.146 -0.5306 -0.4374  0.7261
     1 Li(7)  Bbb    -0.0021    -0.436    -0.156    -0.146  0.8398 -0.3877  0.3801
              Bcc     0.0042     0.875     0.312     0.292  0.1153  0.8114  0.5730
 
              Baa    -0.0109    -0.419    -0.150    -0.140  0.9108  0.1247 -0.3936
     2 N(14)  Bbb    -0.0055    -0.213    -0.076    -0.071  0.4058 -0.4466  0.7974
              Bcc     0.0164     0.632     0.226     0.211  0.0764  0.8860  0.4574
 
              Baa    -0.0062    -0.835    -0.298    -0.278  0.8032 -0.0849 -0.5896
     3 C(13)  Bbb    -0.0038    -0.517    -0.184    -0.172  0.4561 -0.5490  0.7004
              Bcc     0.0101     1.351     0.482     0.451  0.3831  0.8315  0.4022
 
              Baa    -0.0065    -0.339    -0.121    -0.113  0.9156 -0.1556 -0.3708
     4 Cl(35) Bbb    -0.0033    -0.171    -0.061    -0.057  0.2847 -0.4004  0.8710
              Bcc     0.0098     0.510     0.182     0.170  0.2840  0.9030  0.3223
 
              Baa    -0.0099    -0.383    -0.137    -0.128  0.2742  0.4853  0.8303
     5 N(14)  Bbb    -0.0078    -0.300    -0.107    -0.100  0.8303 -0.5551  0.0503
              Bcc     0.0177     0.682     0.243     0.228  0.4853  0.6755 -0.5551
 
              Baa    -0.0075    -1.003    -0.358    -0.335  0.6622 -0.6474  0.3774
     6 C(13)  Bbb    -0.0015    -0.206    -0.073    -0.069  0.1882  0.6312  0.7524
              Bcc     0.0090     1.209     0.431     0.403  0.7253  0.4272 -0.5398
 
              Baa    -0.0071    -0.372    -0.133    -0.124  0.6837 -0.6717  0.2853
     7 Cl(35) Bbb    -0.0022    -0.116    -0.041    -0.039  0.0753  0.4538  0.8879
              Bcc     0.0093     0.488     0.174     0.163  0.7259  0.5855 -0.3609
 
              Baa    -0.0119    -0.458    -0.163    -0.153  0.3556  0.1437  0.9235
     8 N(14)  Bbb    -0.0097    -0.375    -0.134    -0.125  0.1636  0.9633 -0.2129
              Bcc     0.0216     0.833     0.297     0.278  0.9202 -0.2268 -0.3190
 
              Baa    -0.0083    -1.113    -0.397    -0.371  0.0051  0.0453  0.9990
     9 C(13)  Bbb    -0.0009    -0.118    -0.042    -0.039  0.4975  0.8664 -0.0418
              Bcc     0.0092     1.230     0.439     0.410  0.8674 -0.4972  0.0181
 
              Baa    -0.0082    -0.429    -0.153    -0.143  0.0771 -0.0712  0.9945
    10 Cl(35) Bbb    -0.0014    -0.071    -0.025    -0.024  0.2974  0.9537  0.0452
              Bcc     0.0096     0.500     0.178     0.167  0.9516 -0.2923 -0.0947
 
              Baa    -0.0909    -3.505    -1.251    -1.169  0.8777  0.0049 -0.4792
    11 N(14)  Bbb    -0.0745    -2.874    -1.025    -0.959  0.4065 -0.5370  0.7392
              Bcc     0.1654     6.379     2.276     2.128  0.2537  0.8436  0.4733
 
              Baa    -0.0163    -2.181    -0.778    -0.727  0.5169 -0.6011  0.6096
    12 C(13)  Bbb    -0.0133    -1.779    -0.635    -0.593 -0.5674  0.2927  0.7697
              Bcc     0.0295     3.960     1.413     1.321  0.6411  0.7437  0.1897
 
              Baa    -0.0112    -0.589    -0.210    -0.196  0.2242 -0.3577  0.9065
    13 Cl(35) Bbb    -0.0032    -0.166    -0.059    -0.055 -0.2453  0.8795  0.4077
              Bcc     0.0144     0.755     0.269     0.252  0.9432  0.3138 -0.1095
 
              Baa    -0.1016    -3.920    -1.399    -1.307  0.0254 -0.1175  0.9927
    14 N(14)  Bbb    -0.0745    -2.872    -1.025    -0.958  0.5974  0.7980  0.0791
              Bcc     0.1761     6.791     2.423     2.265  0.8015 -0.5911 -0.0905
 
              Baa    -0.0220    -2.959    -1.056    -0.987  0.5598  0.8104 -0.1728
    15 C(13)  Bbb    -0.0129    -1.737    -0.620    -0.579 -0.2589  0.3692  0.8926
              Bcc     0.0350     4.696     1.676     1.566  0.7871 -0.4549  0.4165
 
              Baa    -0.0137    -0.717    -0.256    -0.239  0.3302  0.9263  0.1816
    16 Cl(35) Bbb    -0.0083    -0.435    -0.155    -0.145  0.7629 -0.1486 -0.6292
              Bcc     0.0220     1.151     0.411     0.384  0.5558 -0.3463  0.7557
 
              Baa    -0.0818    -3.155    -1.126    -1.052  0.7330 -0.6124  0.2962
    17 N(14)  Bbb    -0.0588    -2.267    -0.809    -0.756  0.1793  0.5939  0.7843
              Bcc     0.1406     5.422     1.935     1.808  0.6562  0.5217 -0.5452
 
              Baa    -0.0208    -2.795    -0.997    -0.932  0.2024  0.5762  0.7919
    18 C(13)  Bbb    -0.0123    -1.656    -0.591    -0.553 -0.3306  0.8013 -0.4985
              Bcc     0.0332     4.451     1.588     1.485  0.9218  0.1609 -0.3527
 
              Baa    -0.0149    -0.778    -0.278    -0.260  0.2821  0.6382  0.7163
    19 Cl(35) Bbb    -0.0085    -0.445    -0.159    -0.149 -0.0498  0.7554 -0.6534
              Bcc     0.0234     1.224     0.437     0.408  0.9581 -0.1487 -0.2448
 
              Baa    -0.0181    -2.425    -0.865    -0.809  0.8849  0.3750 -0.2763
    20 C(13)  Bbb    -0.0099    -1.327    -0.474    -0.443  0.4446 -0.5031  0.7411
              Bcc     0.0280     3.752     1.339     1.252 -0.1389  0.7787  0.6119
 
              Baa    -0.0133    -7.114    -2.539    -2.373  0.3858 -0.5167  0.7643
    21 H(1)   Bbb    -0.0120    -6.428    -2.294    -2.144  0.8320  0.5528 -0.0463
              Bcc     0.0254    13.542     4.832     4.517 -0.3986  0.6538  0.6431
 
              Baa    -0.0177    -2.371    -0.846    -0.791  0.5533  0.0937  0.8277
    22 C(13)  Bbb    -0.0130    -1.744    -0.622    -0.582  0.2615  0.9239 -0.2794
              Bcc     0.0307     4.115     1.468     1.373  0.7908 -0.3711 -0.4867
 
              Baa    -0.0141    -7.524    -2.685    -2.510  0.6843  0.7014  0.1994
    23 H(1)   Bbb    -0.0127    -6.758    -2.411    -2.254  0.4278 -0.6076  0.6691
              Bcc     0.0268    14.282     5.096     4.764 -0.5905  0.3726  0.7159
 
              Baa    -0.0158    -2.121    -0.757    -0.708  0.9417 -0.3209  0.1005
    24 C(13)  Bbb    -0.0138    -1.852    -0.661    -0.618  0.1377  0.6406  0.7555
              Bcc     0.0296     3.973     1.418     1.325  0.3069  0.6976 -0.6474
 
              Baa    -0.0131    -7.008    -2.501    -2.338  0.3303  0.5765  0.7474
    25 H(1)   Bbb    -0.0121    -6.475    -2.310    -2.160  0.9435 -0.2242 -0.2441
              Bcc     0.0253    13.483     4.811     4.498  0.0269  0.7858 -0.6180
 
              Baa    -0.7044   -88.950   -31.740   -29.671  0.8993 -0.1561 -0.4085
    26 Co(59) Bbb     0.1105    13.959     4.981     4.656 -0.1344  0.7902 -0.5979
              Bcc     0.5938    74.991    26.759    25.014  0.4161  0.5927  0.6897
 
              Baa    -0.0159    -2.133    -0.761    -0.712  0.7122 -0.6400 -0.2885
    27 C(13)  Bbb    -0.0140    -1.884    -0.672    -0.628 -0.2679 -0.6277  0.7309
              Bcc     0.0299     4.017     1.434     1.340  0.6489  0.4433  0.6184
 
              Baa    -0.0062    -0.831    -0.296    -0.277 -0.0782  0.8515 -0.5184
    28 C(13)  Bbb    -0.0055    -0.742    -0.265    -0.248  0.9555 -0.0843 -0.2827
              Bcc     0.0117     1.573     0.561     0.525  0.2844  0.5175  0.8071
 
              Baa    -0.0961     6.957     2.482     2.320  0.7445  0.5470 -0.3828
    29 O(17)  Bbb    -0.0559     4.043     1.443     1.349 -0.4499  0.8347  0.3177
              Bcc     0.1520   -11.000    -3.925    -3.669  0.4933 -0.0643  0.8675
 
              Baa    -0.0057    -0.763    -0.272    -0.255 -0.5380 -0.5266  0.6583
    30 C(13)  Bbb    -0.0053    -0.713    -0.255    -0.238 -0.3707  0.8491  0.3762
              Bcc     0.0110     1.476     0.527     0.492  0.7571  0.0416  0.6520
 
              Baa    -0.0078    -4.184    -1.493    -1.395  0.5610  0.5872 -0.5835
    31 H(1)   Bbb    -0.0075    -3.983    -1.421    -1.329  0.8219 -0.4790  0.3081
              Bcc     0.0153     8.167     2.914     2.724  0.0986  0.6525  0.7514
 
              Baa    -0.0043    -2.280    -0.814    -0.761  0.9391 -0.3278 -0.1035
    32 H(1)   Bbb    -0.0042    -2.235    -0.797    -0.745  0.2611  0.8761 -0.4054
              Bcc     0.0085     4.515     1.611     1.506  0.2235  0.3537  0.9083
 
              Baa    -0.0054    -2.856    -1.019    -0.953  0.3228  0.8125 -0.4854
    33 H(1)   Bbb    -0.0051    -2.695    -0.961    -0.899 -0.3828  0.5811  0.7182
              Bcc     0.0104     5.550     1.980     1.851  0.8656 -0.0460  0.4986
 
              Baa    -0.0042    -2.244    -0.801    -0.748 -0.4826  0.7639  0.4284
    34 H(1)   Bbb    -0.0040    -2.129    -0.760    -0.710  0.6263  0.6430 -0.4408
              Bcc     0.0082     4.372     1.560     1.458  0.6122 -0.0555  0.7888
 
              Baa    -0.0030    -1.576    -0.562    -0.526 -0.6518  0.0783  0.7543
    35 H(1)   Bbb    -0.0028    -1.507    -0.538    -0.503 -0.1177  0.9721 -0.2026
              Bcc     0.0058     3.083     1.100     1.029  0.7492  0.2209  0.6244
 
              Baa    -0.0114    -6.087    -2.172    -2.030 -0.6733  0.6863  0.2750
    36 H(1)   Bbb    -0.0101    -5.376    -1.918    -1.793 -0.1441 -0.4867  0.8616
              Bcc     0.0215    11.463     4.090     3.824  0.7252  0.5405  0.4266
 
              Baa    -0.0018    -0.070    -0.025    -0.023  0.8036 -0.2803  0.5250
    37 N(14)  Bbb    -0.0018    -0.069    -0.025    -0.023 -0.4869  0.1978  0.8508
              Bcc     0.0036     0.139     0.050     0.046  0.3423  0.9393 -0.0225
 
              Baa    -0.0013    -0.171    -0.061    -0.057 -0.1288 -0.1261  0.9836
    38 C(13)  Bbb    -0.0013    -0.170    -0.061    -0.057  0.9556 -0.2809  0.0891
              Bcc     0.0025     0.341     0.122     0.114  0.2651  0.9514  0.1567
 
              Baa    -0.0007    -0.100    -0.036    -0.033  0.8403 -0.3841  0.3826
    39 C(13)  Bbb    -0.0007    -0.100    -0.036    -0.033 -0.4213 -0.0185  0.9068
              Bcc     0.0015     0.200     0.071     0.067  0.3412  0.9231  0.1773
 
              Baa    -0.0016    -0.857    -0.306    -0.286  0.8079 -0.0496 -0.5872
    40 H(1)   Bbb    -0.0016    -0.853    -0.304    -0.285  0.5243 -0.3943  0.7547
              Bcc     0.0032     1.710     0.610     0.570  0.2690  0.9176  0.2926
 
              Baa    -0.0011    -0.614    -0.219    -0.205  0.0679 -0.1379  0.9881
    41 H(1)   Bbb    -0.0011    -0.610    -0.218    -0.204  0.9899 -0.1141 -0.0839
              Bcc     0.0023     1.224     0.437     0.408  0.1243  0.9839  0.1287
 
              Baa    -0.0006    -0.336    -0.120    -0.112  0.7620 -0.0441 -0.6461
    42 H(1)   Bbb    -0.0006    -0.336    -0.120    -0.112  0.5805 -0.3958  0.7116
              Bcc     0.0013     0.673     0.240     0.224  0.2871  0.9173  0.2760
 
              Baa    -0.0007    -0.386    -0.138    -0.129  0.8579 -0.4867  0.1644
    43 H(1)   Bbb    -0.0007    -0.384    -0.137    -0.128 -0.2352 -0.0876  0.9680
              Bcc     0.0014     0.770     0.275     0.257  0.4567  0.8691  0.1897
 
              Baa    -0.0006    -0.314    -0.112    -0.105  0.5338 -0.2538  0.8066
    44 H(1)   Bbb    -0.0006    -0.313    -0.112    -0.104  0.7840 -0.2091 -0.5846
              Bcc     0.0012     0.627     0.224     0.209  0.3170  0.9444  0.0873
 
              Baa    -0.0011    -0.148    -0.053    -0.049  0.6032 -0.1065  0.7904
    45 C(13)  Bbb    -0.0011    -0.147    -0.052    -0.049  0.7042 -0.3941 -0.5905
              Bcc     0.0022     0.295     0.105     0.098  0.3744  0.9129 -0.1628
 
              Baa    -0.0012    -0.157    -0.056    -0.052  0.8140 -0.2135  0.5403
    46 C(13)  Bbb    -0.0012    -0.156    -0.056    -0.052 -0.3780  0.5115  0.7717
              Bcc     0.0023     0.313     0.112     0.104  0.4411  0.8323 -0.3357
 
              Baa    -0.0008    -0.442    -0.158    -0.148  0.6867 -0.2748  0.6730
    47 H(1)   Bbb    -0.0008    -0.440    -0.157    -0.147 -0.5734  0.3642  0.7338
              Bcc     0.0017     0.882     0.315     0.294  0.4468  0.8899 -0.0926
 
              Baa    -0.0009    -0.478    -0.171    -0.160  0.4714  0.0401  0.8810
    48 H(1)   Bbb    -0.0009    -0.475    -0.169    -0.158  0.8436 -0.3117 -0.4372
              Bcc     0.0018     0.953     0.340     0.318  0.2570  0.9493 -0.1807
 
              Baa    -0.0008    -0.420    -0.150    -0.140  0.4465  0.1827  0.8759
    49 H(1)   Bbb    -0.0008    -0.417    -0.149    -0.139  0.7892 -0.5418 -0.2892
              Bcc     0.0016     0.837     0.299     0.279  0.4218  0.8204 -0.3861
 
              Baa    -0.0012    -0.662    -0.236    -0.221  0.5239 -0.0342  0.8511
    50 H(1)   Bbb    -0.0012    -0.654    -0.234    -0.218 -0.6335  0.6522  0.4162
              Bcc     0.0025     1.316     0.470     0.439  0.5693  0.7572 -0.3201
 
              Baa    -0.0016    -0.829    -0.296    -0.276  0.4790  0.2407  0.8442
    51 H(1)   Bbb    -0.0015    -0.816    -0.291    -0.272  0.7990 -0.5179 -0.3057
              Bcc     0.0031     1.644     0.587     0.548  0.3636  0.8209 -0.4404
 
              Baa    -0.0027    -0.364    -0.130    -0.121  0.5712  0.0166  0.8206
    52 C(13)  Bbb    -0.0027    -0.357    -0.127    -0.119  0.8074 -0.1911 -0.5582
              Bcc     0.0054     0.721     0.257     0.240  0.1476  0.9814 -0.1226
 
              Baa    -0.0046    -0.619    -0.221    -0.206  0.2015 -0.0615  0.9776
    53 C(13)  Bbb    -0.0045    -0.605    -0.216    -0.202  0.9795  0.0151 -0.2009
              Bcc     0.0091     1.224     0.437     0.408 -0.0024  0.9980  0.0633
 
              Baa    -0.0033    -1.782    -0.636    -0.595  0.5678  0.1384  0.8114
    54 H(1)   Bbb    -0.0032    -1.731    -0.618    -0.577  0.7978 -0.3353 -0.5011
              Bcc     0.0066     3.513     1.254     1.172  0.2027  0.9319 -0.3008
 
              Baa    -0.0017    -0.928    -0.331    -0.310  0.3233  0.1371  0.9363
    55 H(1)   Bbb    -0.0017    -0.914    -0.326    -0.305  0.9452 -0.0941 -0.3126
              Bcc     0.0035     1.842     0.657     0.615  0.0452  0.9861 -0.1600
 
              Baa    -0.0052    -2.756    -0.983    -0.919  0.1974  0.0953  0.9757
    56 H(1)   Bbb    -0.0050    -2.645    -0.944    -0.882  0.9578  0.1932 -0.2127
              Bcc     0.0101     5.401     1.927     1.802 -0.2087  0.9765 -0.0531
 
              Baa    -0.0088    -4.689    -1.673    -1.564  0.0239 -0.1552  0.9876
    57 H(1)   Bbb    -0.0086    -4.606    -1.643    -1.536  0.9929 -0.1118 -0.0416
              Bcc     0.0174     9.295     3.317     3.101  0.1169  0.9815  0.1514
 
              Baa    -0.0031    -1.627    -0.581    -0.543 -0.1366 -0.2314  0.9632
    58 H(1)   Bbb    -0.0030    -1.599    -0.570    -0.533  0.9893  0.0189  0.1448
              Bcc     0.0060     3.226     1.151     1.076 -0.0517  0.9727  0.2263
 
              Baa    -0.0026    -0.349    -0.125    -0.116  0.7994 -0.5257  0.2908
    59 C(13)  Bbb    -0.0025    -0.337    -0.120    -0.112 -0.2592  0.1348  0.9564
              Bcc     0.0051     0.686     0.245     0.229  0.5420  0.8399  0.0286
 
              Baa    -0.0015    -0.202    -0.072    -0.067  0.7197 -0.6687  0.1865
    60 C(13)  Bbb    -0.0015    -0.199    -0.071    -0.066 -0.2024  0.0548  0.9778
              Bcc     0.0030     0.401     0.143     0.134  0.6641  0.7415  0.0959
 
              Baa    -0.0033    -1.786    -0.637    -0.596  0.7270 -0.4411  0.5263
    61 H(1)   Bbb    -0.0032    -1.727    -0.616    -0.576 -0.3588  0.4095  0.8388
              Bcc     0.0066     3.513     1.253     1.172  0.5855  0.7986 -0.1395
 
              Baa    -0.0038    -2.018    -0.720    -0.673  0.8592 -0.5106 -0.0330
    62 H(1)   Bbb    -0.0037    -1.983    -0.708    -0.661 -0.0683 -0.1785  0.9816
              Bcc     0.0075     4.001     1.428     1.334  0.5071  0.8411  0.1882
 
              Baa    -0.0017    -0.919    -0.328    -0.307 -0.6215  0.7819 -0.0477
    63 H(1)   Bbb    -0.0017    -0.897    -0.320    -0.299 -0.1109 -0.0276  0.9934
              Bcc     0.0034     1.816     0.648     0.606  0.7755  0.6227  0.1039
 
              Baa    -0.0011    -0.566    -0.202    -0.189  0.7171 -0.6390  0.2782
    64 H(1)   Bbb    -0.0010    -0.559    -0.200    -0.187 -0.2056  0.1875  0.9605
              Bcc     0.0021     1.125     0.401     0.375  0.6659  0.7460 -0.0031
 
              Baa    -0.0012    -0.650    -0.232    -0.217  0.7637 -0.6451  0.0262
    65 H(1)   Bbb    -0.0012    -0.642    -0.229    -0.214 -0.1671 -0.1582  0.9732
              Bcc     0.0024     1.293     0.461     0.431  0.6236  0.7475  0.2286
 
              Baa    -0.0052    -0.700    -0.250    -0.233  0.7910  0.1730 -0.5869
    66 Br(79) Bbb    -0.0039    -0.525    -0.187    -0.175 -0.5516  0.6166 -0.5618
              Bcc     0.0091     1.225     0.437     0.408  0.2647  0.7681  0.5831
 
              Baa    -0.0282    -3.778    -1.348    -1.260  0.7243 -0.6510 -0.2271
    67 C(13)  Bbb    -0.0135    -1.812    -0.647    -0.605  0.6786  0.7314  0.0675
              Bcc     0.0417     5.590     1.995     1.865  0.1222 -0.2030  0.9715
 
              Baa    -0.0194     1.401     0.500     0.467  0.8234 -0.5548 -0.1195
    68 O(17)  Bbb    -0.0009     0.065     0.023     0.022 -0.0484 -0.2785  0.9592
              Bcc     0.0203    -1.466    -0.523    -0.489  0.5654  0.7840  0.2561
 
              Baa    -0.1185     8.574     3.059     2.860  0.2327  0.8144  0.5315
    69 O(17)  Bbb    -0.1152     8.337     2.975     2.781  0.9668 -0.2532 -0.0353
              Bcc     0.2337   -16.911    -6.034    -5.641 -0.1059 -0.5221  0.8463
 

 ---------------------------------------------------------------------------------


 This type of calculation cannot be archived.


 SUCCESS IS COUNTED SWEETEST
 BY THOSE WHO NE'ER SUCCEED.
 TO COMPREHEND NECTAR
 REQUIRES SOREST NEED.
           EMILY DICKINSON
 Job cpu time:     108 days  9 hours 20 minutes  2.0 seconds.
 Elapsed time:       1 days 18 hours 33 minutes  9.3 seconds.
 File lengths (MBytes):  RWF=   8714 Int=      0 D2E=      0 Chk=     65 Scr=      2
 Normal termination of Gaussian 16 at Wed Mar  8 12:13:19 2023.
