 Entering Gaussian System, Link 0=g16
 Input=TS_new_all.com
 Output=TS_new_all.log
 Initial command:
 /apps/commercial/G16/g16.linda/l1.exe "/scratch/x1711a05/Gau-53182.inp" -scrdir="/scratch/x1711a05/"
 Default linda workers: node7938
 Entering Link 1 = /apps/commercial/G16/g16.linda/l1.exe PID=     53183.
  
 Copyright (c) 1988,1990,1992,1993,1995,1998,2003,2009,2016,
            Gaussian, Inc.  All Rights Reserved.
  
 This is part of the Gaussian(R) 16 program.  It is based on
 the Gaussian(R) 09 system (copyright 2009, Gaussian, Inc.),
 the Gaussian(R) 03 system (copyright 2003, Gaussian, Inc.),
 the Gaussian(R) 98 system (copyright 1998, Gaussian, Inc.),
 the Gaussian(R) 94 system (copyright 1995, Gaussian, Inc.),
 the Gaussian 92(TM) system (copyright 1992, Gaussian, Inc.),
 the Gaussian 90(TM) system (copyright 1990, Gaussian, Inc.),
 the Gaussian 88(TM) system (copyright 1988, Gaussian, Inc.),
 the Gaussian 86(TM) system (copyright 1986, Carnegie Mellon
 University), and the Gaussian 82(TM) system (copyright 1983,
 Carnegie Mellon University). Gaussian is a federally registered
 trademark of Gaussian, Inc.
  
 This software contains proprietary and confidential information,
 including trade secrets, belonging to Gaussian, Inc.
  
 This software is provided under written license and may be
 used, copied, transmitted, or stored only in accord with that
 written license.
  
 The following legend is applicable only to US Government
 contracts under FAR:
  
                    RESTRICTED RIGHTS LEGEND
  
 Use, reproduction and disclosure by the US Government is
 subject to restrictions as set forth in subparagraphs (a)
 and (c) of the Commercial Computer Software - Restricted
 Rights clause in FAR 52.227-19.
  
 Gaussian, Inc.
 340 Quinnipiac St., Bldg. 40, Wallingford CT 06492
  
  
 ---------------------------------------------------------------
 Warning -- This program may not be used in any manner that
 competes with the business of Gaussian, Inc. or will provide
 assistance to any competitor of Gaussian, Inc.  The licensee
 of this program is prohibited from giving any competitor of
 Gaussian, Inc. access to this program.  By using this program,
 the user acknowledges that Gaussian, Inc. is engaged in the
 business of creating and licensing software in the field of
 computational chemistry and represents and warrants to the
 licensee that it is not a competitor of Gaussian, Inc. and that
 it will not use this program in any manner prohibited above.
 ---------------------------------------------------------------
  

 Cite this work as:
 Gaussian 16, Revision A.03,
 M. J. Frisch, G. W. Trucks, H. B. Schlegel, G. E. Scuseria, 
 M. A. Robb, J. R. Cheeseman, G. Scalmani, V. Barone, 
 G. A. Petersson, H. Nakatsuji, X. Li, M. Caricato, A. V. Marenich, 
 J. Bloino, B. G. Janesko, R. Gomperts, B. Mennucci, H. P. Hratchian, 
 J. V. Ortiz, A. F. Izmaylov, J. L. Sonnenberg, D. Williams-Young, 
 F. Ding, F. Lipparini, F. Egidi, J. Goings, B. Peng, A. Petrone, 
 T. Henderson, D. Ranasinghe, V. G. Zakrzewski, J. Gao, N. Rega, 
 G. Zheng, W. Liang, M. Hada, M. Ehara, K. Toyota, R. Fukuda, 
 J. Hasegawa, M. Ishida, T. Nakajima, Y. Honda, O. Kitao, H. Nakai, 
 T. Vreven, K. Throssell, J. A. Montgomery, Jr., J. E. Peralta, 
 F. Ogliaro, M. J. Bearpark, J. J. Heyd, E. N. Brothers, K. N. Kudin, 
 V. N. Staroverov, T. A. Keith, R. Kobayashi, J. Normand, 
 K. Raghavachari, A. P. Rendell, J. C. Burant, S. S. Iyengar, 
 J. Tomasi, M. Cossi, J. M. Millam, M. Klene, C. Adamo, R. Cammi, 
 J. W. Ochterski, R. L. Martin, K. Morokuma, O. Farkas, 
 J. B. Foresman, and D. J. Fox, Gaussian, Inc., Wallingford CT, 2016.
 
 ******************************************
 Gaussian 16:  ES64L-G16RevA.03 25-Dec-2016
                17-Oct-2019 
 ******************************************
 %nprocshared=64
 Will use up to   64 processors via shared memory.
 %mem=64GB
 %chk=TS_new_all.chk
 SetLPE:    new flags="-opt 'Tsnet.Node.lindarsharg: ssh'  -nodelist 'node7938' -env GAUSS_MDEF=8589934592 -env GAUSS_EXEDIR="/apps/commercial/G16/g16.linda""
 Will use up to    1 processors via Linda.
 ----------------------------------------------------------------------
 # opt=(calcall,tight,qst3,cartesian) freq cam-b3lyp/gen nosymm scf=(qc
 ,maxcycle=1024,vshift=100) pseudo=read
 ----------------------------------------------------------------------
 1/5=1,7=10,10=4,18=20,26=3,27=203,38=1/1,3;
 2/9=110,12=2,15=1,17=6,18=5,40=1/2;
 3/5=7,11=2,16=1,17=8,25=1,30=1,71=2,74=-40,140=1/1,2,3;
 4//1;
 5/5=2,7=1024,8=3,10=100,38=5/8;
 8/6=4,10=90,11=11/1;
 11/6=1,8=1,9=11,15=111,16=1,31=1/1,2,10;
 10/6=1,31=1/2;
 6/7=2,8=2,9=2,10=2,18=1,28=1/1;
 7/10=1,25=1,30=1/1,2,3,16;
 1/5=1,7=10,10=4,18=20,26=3,27=203/3(3);
 2/9=110,15=1/2;
 7/8=1,9=1,25=1,30=1,44=-1/16;
 99//99;
 2/9=110,15=1/2;
 3/5=7,6=1,11=2,16=1,17=8,25=1,30=1,71=2,74=-40,82=7,140=1/1,2,3;
 4/5=5,16=3,69=1/1;
 5/5=2,7=1024,8=3,10=100,38=5/8;
 8/6=4,10=90,11=11/1;
 11/6=1,8=1,9=11,15=111,16=1,31=1/1,2,10;
 10/6=1,31=1/2;
 7/10=1,25=1,30=1/1,2,3,16;
 1/5=1,7=10,10=4,18=20,26=3,27=203/3(-8);
 2/9=110,15=1/2;
 6/7=2,8=2,9=2,10=2,18=1,19=2,28=1/1;
 7/8=1,9=1,25=1,30=1,44=-1/16;
 99//99;
 ----------
 TS_new_all
 ----------
 Symbolic Z-matrix:
 Charge =  0 Multiplicity = 4
 Li                   -1   -0.65876  -5.04605  -3.46452 
 N                    -1   -0.32836  -3.61409  -2.2819 
 C                    0    -0.93885  -4.00954  -1.12599 
 Cl                   0    -1.62794  -5.6023   -1.06632 
 N                    -1    2.25851   2.61269  -2.48314 
 C                    0     3.15031   1.59284  -2.43423 
 Cl                   0     4.71158   1.68716  -3.17365 
 N                    -1   -3.37906   2.02857   1.06405 
 C                    0    -3.60778   1.91989  -0.26692 
 Cl                   0    -5.03441   2.53533  -1.01959 
 N                    0    -0.24374  -1.95173  -0.79081 
 C                    0    -0.89558  -3.00307  -0.20724 
 Cl                   0    -1.50836  -2.95582   1.38661 
 N                    0    -1.64398   0.96085   0.09041 
 C                    0    -2.56391   1.27129  -0.87215 
 Cl                   0    -2.32842   0.84664  -2.52865 
 N                    0     1.36652   0.88702  -1.32979 
 C                    0     2.62523   0.53903  -1.73229 
 Cl                   0     3.33393  -0.98703  -1.35342 
 C                    0     0.06918  -2.36423  -2.02278 
 H                    0     0.59474  -1.73995  -2.73025 
 C                    0    -2.20592   1.44496   1.23131 
 H                    0    -1.72232   1.34361   2.1935 
 C                    0     1.21102   2.14224  -1.81592 
 H                    0     0.29281   2.69497  -1.66902 
 Co                   0     0.04179  -0.04234  -0.1328 
 C                    0     2.23048   0.37926   2.0345 
 C                    0     1.09737   1.15889   2.48337 
 O                    0     0.85645  -0.07832   1.73005 
 C                    0     3.0173   -0.48995   2.95896 
 H                    0     0.8317    2.06987   1.95959 
 H                    0     0.78159   1.09388   3.51941 
 H                    0     3.46442  -1.33228   2.42514 
 H                    0     2.38678  -0.87071   3.76549 
 H                    0     3.80878   0.1306    3.38743 
 H                    0     2.74638   0.743     1.15186 
 N                    0     4.09478   5.50194  -0.19064 
 C                    0     4.22518   6.22331   1.14755 
 C                    0     5.5725    6.8497    1.47332 
 H                    0     3.9526    5.48496   1.91102 
 H                    0     3.46755   7.0094    1.12759 
 H                    0     5.49519   7.23289   2.49378 
 H                    0     6.39446   6.1362    1.46321 
 H                    0     5.82497   7.69318   0.82706 
 C                    0     4.83405   6.26334  -1.26208 
 C                    0     4.70748   5.71315  -2.6739 
 H                    0     5.88121   6.28625  -0.96677 
 H                    0     4.45619   7.28801  -1.21256 
 H                    0     5.26757   6.37766  -3.33677 
 H                    0     5.13173   4.71339  -2.77429 
 H                    0     3.67786   5.67881  -3.03079 
 C                    0     2.61632   5.46162  -0.56918 
 C                    0     1.66085   5.09923   0.55869 
 H                    0     2.533     4.73687  -1.37999 
 H                    0     2.3837    6.45501  -0.96249 
 H                    0     0.70641   4.82254   0.10374 
 H                    0     2.01246   4.26577   1.17289 
 H                    0     1.47318   5.93699   1.23219 
 C                    0     4.56895   4.05678  -0.10676 
 C                    0     6.01316   3.83225   0.29639 
 H                    0     4.35565   3.62618  -1.08189 
 H                    0     3.94315   3.57961   0.65085 
 H                    0     6.22302   2.77458   0.11941 
 H                    0     6.73962   4.40646  -0.28486 
 H                    0     6.15097   4.00317   1.36468 
 Br                   0     3.65035   3.24223   3.1681 
 
 Add virtual bond connecting atoms H54        and N5         Dist= 4.55D+00.
 Add virtual bond connecting atoms Br66       and H40        Dist= 4.89D+00.
 Add virtual bond connecting atoms Br66       and H62        Dist= 4.83D+00.
 ---------------------------------
 Co_PO_TEABr_ring_opened_opt_freq4
 ---------------------------------
 Symbolic Z-matrix:
 Charge =  0 Multiplicity = 4
 Li                   -1   -0.65876  -5.04605  -3.46452 
 N                    -1   -0.32836  -3.61409  -2.2819 
 C                    0    -1.29378  -3.83577  -1.34288 
 Cl                   0    -2.25949  -5.27955  -1.48453 
 N                    -1    2.25851   2.61269  -2.48314 
 C                    0     3.26426   1.76302  -2.15764 
 Cl                   0     4.91235   2.06962  -2.59583 
 N                    -1   -3.37906   2.02857   1.06405 
 C                    0    -3.54987   2.10027  -0.2748 
 Cl                   0    -4.91147   2.88507  -1.00126 
 N                    0    -0.3547   -1.9215   -0.81875 
 C                    0    -1.32109  -2.81002  -0.44469 
 Cl                   0    -2.333    -2.59092   0.91435 
 N                    0    -1.65285   0.99502   0.02612 
 C                    0    -2.51188   1.47062  -0.91866 
 Cl                   0    -2.27408   1.21708  -2.61206 
 N                    0     1.4239    0.86437  -1.30493 
 C                    0     2.77013   0.69847  -1.44228 
 Cl                   0     3.60903  -0.67235  -0.81963 
 C                    0     0.20478  -2.44121  -1.91177 
 H                    0     1.00999  -1.95259  -2.44095 
 C                    0    -2.24108   1.35936   1.19332 
 H                    0    -1.80919   1.08792   2.14654 
 C                    0     1.18347   2.02304  -1.95811 
 H                    0     0.18199   2.41932  -2.0502 
 Co                   0     0.07668  -0.06028  -0.02304 
 C                    0     1.73982   0.51533   2.3202 
 C                    0     0.97553   1.43258   3.28003 
 O                    0     0.78003  -0.25523   1.69437 
 C                    0     2.74815  -0.36754   3.04764 
 H                    0     0.19753   1.98463   2.7591 
 H                    0     0.54233   0.87179   4.10686 
 H                    0     3.25301  -1.00614   2.32036 
 H                    0     2.22123  -1.01098   3.7588 
 H                    0     3.49782   0.21931   3.58616 
 H                    0     2.29402   1.15364   1.60527 
 N                    0     2.25707   5.34619   0.41706 
 C                    0     1.94636   5.98882   1.76325 
 C                    0     3.01639   6.87033   2.3906 
 H                    0     1.69673   5.16713   2.43534 
 H                    0     1.04473   6.5845    1.60841 
 H                    0     2.65683   7.14046   3.38667 
 H                    0     3.97403   6.36726   2.51766 
 H                    0     3.17491   7.80009   1.84171 
 C                    0     3.06528   6.29101  -0.44715 
 C                    0     3.53398   5.73327  -1.7824 
 H                    0     3.92785   6.59563   0.14127 
 H                    0     2.43378   7.17238  -0.58547 
 H                    0     3.96954   6.56317  -2.34474 
 H                    0     4.30843   4.97424  -1.66341 
 H                    0     2.74417   5.28925  -2.3877 
 C                    0     0.92771   5.08618  -0.29261 
 C                    0    -0.08472   4.25339   0.47354 
 H                    0     1.18001   4.5899   -1.22815 
 H                    0     0.52365   6.0769   -0.51385 
 H                    0    -0.99088   4.19258  -0.1347 
 H                    0     0.24342   3.22562   0.6242 
 H                    0    -0.37083   4.68678   1.43292 
 C                    0     2.96303   4.00929   0.58143 
 C                    0     4.34989   4.04363   1.19442 
 H                    0     2.9827    3.56458  -0.41207 
 H                    0     2.31235   3.40425   1.20873 
 H                    0     4.75547   3.03329   1.10388 
 H                    0     5.03962   4.71372   0.67674 
 H                    0     4.32929   4.28288   2.25791 
 Br                   0     2.10601   2.83242   4.13221 
 
 Add virtual bond connecting atoms H61        and N5         Dist= 4.52D+00.
 Add virtual bond connecting atoms H62        and H36        Dist= 4.32D+00.
 ------
 TS_new
 ------
 Symbolic Z-matrix:
 Charge =  0 Multiplicity = 4
 Li                   -1   -0.65876  -5.04605  -3.46452 
 N                    -1   -0.32836  -3.61409  -2.2819 
 C                    0    -0.93885  -4.00954  -1.12599 
 Cl                   0    -1.62794  -5.6023   -1.06632 
 N                    -1    2.25851   2.61269  -2.48314 
 C                    0     3.15031   1.59284  -2.43423 
 Cl                   0     4.71158   1.68716  -3.17365 
 N                    -1   -3.37906   2.02857   1.06405 
 C                    0    -3.60778   1.91989  -0.26692 
 Cl                   0    -5.03441   2.53533  -1.01959 
 N                    0    -0.24374  -1.95173  -0.79081 
 C                    0    -0.89558  -3.00307  -0.20724 
 Cl                   0    -1.50836  -2.95582   1.38661 
 N                    0    -1.64398   0.96085   0.09041 
 C                    0    -2.56391   1.27129  -0.87215 
 Cl                   0    -2.32842   0.84664  -2.52865 
 N                    0     1.36652   0.88702  -1.32979 
 C                    0     2.62523   0.53903  -1.73229 
 Cl                   0     3.33393  -0.98703  -1.35342 
 C                    0     0.06918  -2.36423  -2.02278 
 H                    0     0.59474  -1.73995  -2.73025 
 C                    0    -2.20592   1.44496   1.23131 
 H                    0    -1.72232   1.34361   2.1935 
 C                    0     1.21102   2.14224  -1.81592 
 H                    0     0.29281   2.69497  -1.66902 
 Co                   0     0.15627   0.0184   -0.06317 
 C                    0     2.37411   0.5555    2.05785 
 C                    0     1.57984   1.72889   2.54918 
 O                    0     0.97093  -0.01757   1.79968 
 C                    0     3.16364  -0.53856   2.74258 
 H                    0     1.19929   2.27753   1.71588 
 H                    0     0.99047   1.80269   3.1575 
 H                    0     3.44558  -1.52882   2.37608 
 H                    0     2.91164  -0.60724   3.80315 
 H                    0     4.00536   0.14808   2.61955 
 H                    0     2.90222   0.81469   1.14888 
 N                    0     4.09478   5.50194  -0.19064 
 C                    0     4.22518   6.22331   1.14755 
 C                    0     5.5725    6.8497    1.47332 
 H                    0     3.9526    5.48496   1.91102 
 H                    0     3.46755   7.0094    1.12759 
 H                    0     5.49519   7.23289   2.49378 
 H                    0     6.39446   6.1362    1.46321 
 H                    0     5.82497   7.69318   0.82706 
 C                    0     4.83405   6.26334  -1.26208 
 C                    0     4.70748   5.71315  -2.6739 
 H                    0     5.88121   6.28625  -0.96677 
 H                    0     4.45619   7.28801  -1.21256 
 H                    0     5.26757   6.37766  -3.33677 
 H                    0     5.13173   4.71339  -2.77429 
 H                    0     3.67786   5.67881  -3.03079 
 C                    0     2.61632   5.46162  -0.56918 
 C                    0     1.66085   5.09923   0.55869 
 H                    0     2.533     4.73687  -1.37999 
 H                    0     2.3837    6.45501  -0.96249 
 H                    0     0.70641   4.82254   0.10374 
 H                    0     2.01246   4.26577   1.17289 
 H                    0     1.47318   5.93699   1.23219 
 C                    0     4.56895   4.05678  -0.10676 
 C                    0     6.01316   3.83225   0.29639 
 H                    0     4.35565   3.62618  -1.08189 
 H                    0     3.94315   3.57961   0.65085 
 H                    0     6.22302   2.77458   0.11941 
 H                    0     6.73962   4.40646  -0.28486 
 H                    0     6.15097   4.00317   1.36468 
 Br                   0     3.02867   3.67766   3.33559 
 

 GradGradGradGradGradGradGradGradGradGradGradGradGradGradGradGradGradGrad
 Berny optimization.
 Initialization pass.
                           ----------------------------
                           !    Initial Parameters    !
                           ! (Angstroms and Degrees)  !
 --------------------------                            --------------------------
 ! Name  Definition         TS        Reactant Product Derivative Info.         !
 --------------------------------------------------------------------------------
 ! X1    R(1,-1)           -0.6588   -0.6588   -0.6588 frozen, calculate D2E/DX2!
 ! Y1    R(1,-2)           -5.0461   -5.0461   -5.0461 frozen, calculate D2E/DX2!
 ! Z1    R(1,-3)           -3.4645   -3.4645   -3.4645 frozen, calculate D2E/DX2!
 ! X2    R(2,-1)           -0.3284   -0.3284   -0.3284 frozen, calculate D2E/DX2!
 ! Y2    R(2,-2)           -3.6141   -3.6141   -3.6141 frozen, calculate D2E/DX2!
 ! Z2    R(2,-3)           -2.2819   -2.2819   -2.2819 frozen, calculate D2E/DX2!
 ! X5    R(5,-1)            2.2585    2.2585    2.2585 frozen, calculate D2E/DX2!
 ! Y5    R(5,-2)            2.6127    2.6127    2.6127 frozen, calculate D2E/DX2!
 ! Z5    R(5,-3)           -2.4831   -2.4831   -2.4831 frozen, calculate D2E/DX2!
 ! X8    R(8,-1)           -3.3791   -3.3791   -3.3791 frozen, calculate D2E/DX2!
 ! Y8    R(8,-2)            2.0286    2.0286    2.0286 frozen, calculate D2E/DX2!
 ! Z8    R(8,-3)            1.064     1.064     1.064  frozen, calculate D2E/DX2!
 ! R1    R(2,3)             1.3657    1.3657    1.3649 calculate D2E/DX2 analyti!
 ! R2    R(2,20)            1.3369    1.3369    1.3405 calculate D2E/DX2 analyti!
 ! R3    R(3,4)             1.7365    1.7365    1.7427 calculate D2E/DX2 analyti!
 ! R4    R(3,12)            1.3634    1.3634    1.3637 calculate D2E/DX2 analyti!
 ! R5    R(5,6)             1.3556    1.3556    1.3563 calculate D2E/DX2 analyti!
 ! R6    R(5,24)            1.3281    1.3281    1.3338 calculate D2E/DX2 analyti!
 ! R7    R(5,54)            2.4092    2.4092    2.5783 calculate D2E/DX2 analyti!
 ! R8    R(5,61)            2.7182    2.7182    2.3916 calculate D2E/DX2 analyti!
 ! R9    R(6,7)             1.7301    1.7301    1.7327 calculate D2E/DX2 analyti!
 ! R10   R(6,18)            1.3708    1.3708    1.3745 calculate D2E/DX2 analyti!
 ! R11   R(8,9)             1.3548    1.3548    1.3516 calculate D2E/DX2 analyti!
 ! R12   R(8,22)            1.3209    1.3209    1.3265 calculate D2E/DX2 analyti!
 ! R13   R(9,10)            1.7264    1.7264    1.7314 calculate D2E/DX2 analyti!
 ! R14   R(9,15)            1.3699    1.3699    1.3742 calculate D2E/DX2 analyti!
 ! R15   R(11,12)           1.3678    1.3678    1.365  calculate D2E/DX2 analyti!
 ! R16   R(11,20)           1.3363    1.3363    1.3333 calculate D2E/DX2 analyti!
 ! R17   R(11,26)           2.138     2.0397    2.0696 calculate D2E/DX2 analyti!
 ! R18   R(12,13)           1.7082    1.7082    1.7085 calculate D2E/DX2 analyti!
 ! R19   R(14,15)           1.3672    1.3672    1.3626 calculate D2E/DX2 analyti!
 ! R20   R(14,22)           1.3608    1.3608    1.3569 calculate D2E/DX2 analyti!
 ! R21   R(14,26)           2.0378    1.9743    2.0267 calculate D2E/DX2 analyti!
 ! R22   R(15,16)           1.7262    1.7262    1.7287 calculate D2E/DX2 analyti!
 ! R23   R(17,18)           1.3665    1.3665    1.3634 calculate D2E/DX2 analyti!
 ! R24   R(17,24)           1.355     1.355     1.3516 calculate D2E/DX2 analyti!
 ! R25   R(17,26)           1.9554    2.0128    2.0768 calculate D2E/DX2 analyti!
 ! R26   R(18,19)           1.7247    1.7247    1.7235 calculate D2E/DX2 analyti!
 ! R27   R(20,21)           1.08      1.08      1.0804 calculate D2E/DX2 analyti!
 ! R28   R(22,23)           1.0816    1.0816    1.0811 calculate D2E/DX2 analyti!
 ! R29   R(24,25)           1.0818    1.0818    1.081  calculate D2E/DX2 analyti!
 ! R30   R(26,29)           2.0335    2.0335    1.8661 calculate D2E/DX2 analyti!
 ! R31   R(27,28)           1.4997    1.4468    1.5319 calculate D2E/DX2 analyti!
 ! R32   R(27,29)           1.5375    1.4799    1.3808 calculate D2E/DX2 analyti!
 ! R33   R(27,30)           1.513     1.4931    1.5249 calculate D2E/DX2 analyti!
 ! R34   R(27,36)           1.0827    1.0851    1.1071 calculate D2E/DX2 analyti!
 ! R35   R(28,29)           1.9957    1.4684    2.3241 calculate D2E/DX2 analyti!
 ! R36   R(28,31)           1.0678    1.0839    1.0869 calculate D2E/DX2 analyti!
 ! R37   R(28,32)           0.8502    1.085     1.0889 calculate D2E/DX2 analyti!
 ! R38   R(28,66)           2.5525    3.3655    1.9909 calculate D2E/DX2 analyti!
 ! R39   R(30,33)           1.0929    1.0929    1.0916 calculate D2E/DX2 analyti!
 ! R40   R(30,34)           1.0923    1.0923    1.0943 calculate D2E/DX2 analyti!
 ! R41   R(30,35)           1.0932    1.0932    1.0938 calculate D2E/DX2 analyti!
 ! R42   R(36,62)           2.9961    3.1192    2.2854 calculate D2E/DX2 analyti!
 ! R43   R(37,38)           1.5258    1.5258    1.5237 calculate D2E/DX2 analyti!
 ! R44   R(37,45)           1.5081    1.5081    1.5142 calculate D2E/DX2 analyti!
 ! R45   R(37,52)           1.5267    1.5267    1.5292 calculate D2E/DX2 analyti!
 ! R46   R(37,59)           1.5233    1.5233    1.5208 calculate D2E/DX2 analyti!
 ! R47   R(38,39)           1.5211    1.5211    1.5217 calculate D2E/DX2 analyti!
 ! R48   R(38,40)           1.0965    1.0965    1.0905 calculate D2E/DX2 analyti!
 ! R49   R(38,41)           1.0919    1.0919    1.0917 calculate D2E/DX2 analyti!
 ! R50   R(39,42)           1.0928    1.0928    1.0929 calculate D2E/DX2 analyti!
 ! R51   R(39,43)           1.0885    1.0885    1.0892 calculate D2E/DX2 analyti!
 ! R52   R(39,44)           1.0922    1.0922    1.0913 calculate D2E/DX2 analyti!
 ! R53   R(40,66)           2.4798    2.5887    2.9151 calculate D2E/DX2 analyti!
 ! R54   R(45,46)           1.5205    1.5205    1.5211 calculate D2E/DX2 analyti!
 ! R55   R(45,47)           1.0882    1.0882    1.0877 calculate D2E/DX2 analyti!
 ! R56   R(45,48)           1.0932    1.0932    1.093  calculate D2E/DX2 analyti!
 ! R57   R(46,49)           1.093     1.093     1.093  calculate D2E/DX2 analyti!
 ! R58   R(46,50)           1.0907    1.0907    1.0909 calculate D2E/DX2 analyti!
 ! R59   R(46,51)           1.0903    1.0903    1.0897 calculate D2E/DX2 analyti!
 ! R60   R(52,53)           1.522     1.522     1.5184 calculate D2E/DX2 analyti!
 ! R61   R(52,54)           1.0907    1.0907    1.0887 calculate D2E/DX2 analyti!
 ! R62   R(52,55)           1.0935    1.0935    1.0926 calculate D2E/DX2 analyti!
 ! R63   R(53,56)           1.0929    1.0929    1.0931 calculate D2E/DX2 analyti!
 ! R64   R(53,57)           1.0934    1.0934    1.0893 calculate D2E/DX2 analyti!
 ! R65   R(53,58)           1.0912    1.0912    1.0909 calculate D2E/DX2 analyti!
 ! R66   R(59,60)           1.5161    1.5161    1.5167 calculate D2E/DX2 analyti!
 ! R67   R(59,61)           1.0871    1.0871    1.0887 calculate D2E/DX2 analyti!
 ! R68   R(59,62)           1.0924    1.0924    1.0876 calculate D2E/DX2 analyti!
 ! R69   R(60,63)           1.0927    1.0927    1.0925 calculate D2E/DX2 analyti!
 ! R70   R(60,64)           1.0933    1.0933    1.0921 calculate D2E/DX2 analyti!
 ! R71   R(60,65)           1.0906    1.0906    1.0903 calculate D2E/DX2 analyti!
 ! R72   R(62,66)           2.8379    2.5566    2.986  calculate D2E/DX2 analyti!
 ! A1    A(1,2,3)         103.4455  103.4455  100.6108 calculate D2E/DX2 analyti!
 ! A2    A(1,2,20)        152.0423  152.0423  155.092  calculate D2E/DX2 analyti!
 ! A3    A(3,2,20)        103.8613  103.8613  103.501  calculate D2E/DX2 analyti!
 ! A4    A(2,3,4)         118.1686  118.1686  118.0723 calculate D2E/DX2 analyti!
 ! A5    A(2,3,12)        110.023   110.023   110.1898 calculate D2E/DX2 analyti!
 ! A6    A(4,3,12)        131.8001  131.8001  131.7274 calculate D2E/DX2 analyti!
 ! A7    A(6,5,24)        103.5475  103.5475  103.0776 calculate D2E/DX2 analyti!
 ! A8    A(6,5,54)        124.8767  124.8767  132.3619 calculate D2E/DX2 analyti!
 ! A9    A(6,5,61)         75.7804   75.7804   79.4536 calculate D2E/DX2 analyti!
 ! A10   A(24,5,54)        99.9123   99.9123   79.0629 calculate D2E/DX2 analyti!
 ! A11   A(24,5,61)       118.7904  118.7904   94.5389 calculate D2E/DX2 analyti!
 ! A12   A(5,6,7)         122.4947  122.4947  122.2629 calculate D2E/DX2 analyti!
 ! A13   A(5,6,18)        110.1713  110.1713  110.0923 calculate D2E/DX2 analyti!
 ! A14   A(7,6,18)        127.3338  127.3338  127.6349 calculate D2E/DX2 analyti!
 ! A15   A(9,8,22)        103.8205  103.8205  103.3977 calculate D2E/DX2 analyti!
 ! A16   A(8,9,10)        122.6287  122.6287  122.6194 calculate D2E/DX2 analyti!
 ! A17   A(8,9,15)        110.0816  110.0816  110.1422 calculate D2E/DX2 analyti!
 ! A18   A(10,9,15)       127.2897  127.2897  127.2379 calculate D2E/DX2 analyti!
 ! A19   A(12,11,20)      105.5252  105.5252  105.5448 calculate D2E/DX2 analyti!
 ! A20   A(12,11,26)      130.7132  130.4385  128.8716 calculate D2E/DX2 analyti!
 ! A21   A(20,11,26)      123.6691  123.6137  125.3267 calculate D2E/DX2 analyti!
 ! A22   A(3,12,11)       107.1595  107.1595  107.1543 calculate D2E/DX2 analyti!
 ! A23   A(3,12,13)       129.6252  129.6252  129.2162 calculate D2E/DX2 analyti!
 ! A24   A(11,12,13)      123.215   123.215   123.6294 calculate D2E/DX2 analyti!
 ! A25   A(15,14,22)      103.3934  103.3934  103.2623 calculate D2E/DX2 analyti!
 ! A26   A(15,14,26)      130.2694  127.6115  134.6622 calculate D2E/DX2 analyti!
 ! A27   A(22,14,26)      126.336   128.9128  122.0488 calculate D2E/DX2 analyti!
 ! A28   A(9,15,14)       108.0103  108.0103  108.1347 calculate D2E/DX2 analyti!
 ! A29   A(9,15,16)       130.1199  130.1199  129.0551 calculate D2E/DX2 analyti!
 ! A30   A(14,15,16)      121.868   121.868   122.7707 calculate D2E/DX2 analyti!
 ! A31   A(18,17,24)      103.6466  103.6466  103.372  calculate D2E/DX2 analyti!
 ! A32   A(18,17,26)      130.373   131.5898  130.4321 calculate D2E/DX2 analyti!
 ! A33   A(24,17,26)      124.9498  124.4394  124.3708 calculate D2E/DX2 analyti!
 ! A34   A(6,18,17)       107.9324  107.9324  108.2506 calculate D2E/DX2 analyti!
 ! A35   A(6,18,19)       129.4434  129.4434  128.9803 calculate D2E/DX2 analyti!
 ! A36   A(17,18,19)      122.6225  122.6225  122.7523 calculate D2E/DX2 analyti!
 ! A37   A(2,20,11)       113.4304  113.4304  113.6101 calculate D2E/DX2 analyti!
 ! A38   A(2,20,21)       123.9261  123.9261  123.8429 calculate D2E/DX2 analyti!
 ! A39   A(11,20,21)      122.6434  122.6434  122.5469 calculate D2E/DX2 analyti!
 ! A40   A(8,22,14)       114.6935  114.6935  115.0587 calculate D2E/DX2 analyti!
 ! A41   A(8,22,23)       123.4434  123.4434  123.7312 calculate D2E/DX2 analyti!
 ! A42   A(14,22,23)      121.8605  121.8605  121.188  calculate D2E/DX2 analyti!
 ! A43   A(5,24,17)       114.7002  114.7002  115.2022 calculate D2E/DX2 analyti!
 ! A44   A(5,24,25)       123.8289  123.8289  123.4442 calculate D2E/DX2 analyti!
 ! A45   A(17,24,25)      121.4678  121.4678  121.3475 calculate D2E/DX2 analyti!
 ! A46   A(11,26,14)      106.6507  113.1165  107.4412 calculate D2E/DX2 analyti!
 ! A47   A(11,26,17)      107.7391  109.4213  107.3549 calculate D2E/DX2 analyti!
 ! A48   A(11,26,29)      111.7423  109.5758  109.7826 calculate D2E/DX2 analyti!
 ! A49   A(14,26,17)      112.9643  113.2397  109.6773 calculate D2E/DX2 analyti!
 ! A50   A(14,26,29)      107.0409  104.3287  110.7158 calculate D2E/DX2 analyti!
 ! A51   A(17,26,29)      110.6894  106.8149  111.7203 calculate D2E/DX2 analyti!
 ! A52   A(28,27,29)       82.1423   60.2163  105.7431 calculate D2E/DX2 analyti!
 ! A53   A(28,27,30)      133.9374  122.2985  112.1894 calculate D2E/DX2 analyti!
 ! A54   A(28,27,36)      110.247   116.364   108.007  calculate D2E/DX2 analyti!
 ! A55   A(29,27,30)      106.4216  115.8913  110.6555 calculate D2E/DX2 analyti!
 ! A56   A(29,27,36)      113.1661  112.1933  112.1488 calculate D2E/DX2 analyti!
 ! A57   A(30,27,36)      107.3682  116.6304  108.1103 calculate D2E/DX2 analyti!
 ! A58   A(27,28,31)      109.5777  119.6656  111.1576 calculate D2E/DX2 analyti!
 ! A59   A(27,28,32)      132.0254  119.4642  111.461  calculate D2E/DX2 analyti!
 ! A60   A(27,28,66)      113.4325   78.6148  113.947  calculate D2E/DX2 analyti!
 ! A61   A(29,28,31)       92.741   114.8359   88.9484 calculate D2E/DX2 analyti!
 ! A62   A(29,28,32)       97.653   113.0553   96.3496 calculate D2E/DX2 analyti!
 ! A63   A(31,28,32)      105.4691  116.132   109.9206 calculate D2E/DX2 analyti!
 ! A64   A(31,28,66)       92.8915   76.3479  104.7417 calculate D2E/DX2 analyti!
 ! A65   A(32,28,66)       96.1285   93.6456  105.2467 calculate D2E/DX2 analyti!
 ! A66   A(26,29,27)      120.8531  123.7074  128.3765 calculate D2E/DX2 analyti!
 ! A67   A(26,29,28)      116.7949  121.3849  125.716  calculate D2E/DX2 analyti!
 ! A68   A(27,30,33)      129.6468  111.2146  109.0682 calculate D2E/DX2 analyti!
 ! A69   A(27,30,34)      111.3773  110.8508  109.3937 calculate D2E/DX2 analyti!
 ! A70   A(27,30,35)       84.069   107.0831  112.1752 calculate D2E/DX2 analyti!
 ! A71   A(33,30,34)      109.1574  109.1574  108.1614 calculate D2E/DX2 analyti!
 ! A72   A(33,30,35)      109.435   109.435   108.9596 calculate D2E/DX2 analyti!
 ! A73   A(34,30,35)      109.0505  109.0505  108.9985 calculate D2E/DX2 analyti!
 ! A74   A(27,36,62)      122.0009  128.1617  133.1454 calculate D2E/DX2 analyti!
 ! A75   A(38,37,45)      110.03    110.03    110.4822 calculate D2E/DX2 analyti!
 ! A76   A(38,37,52)      108.2224  108.2224  107.7254 calculate D2E/DX2 analyti!
 ! A77   A(38,37,59)      111.9401  111.9401  111.7111 calculate D2E/DX2 analyti!
 ! A78   A(45,37,52)      108.1739  108.1739  107.7725 calculate D2E/DX2 analyti!
 ! A79   A(45,37,59)      111.4399  111.4399  111.2507 calculate D2E/DX2 analyti!
 ! A80   A(52,37,59)      106.8609  106.8609  107.7125 calculate D2E/DX2 analyti!
 ! A81   A(37,38,39)      117.2722  117.2722  117.7206 calculate D2E/DX2 analyti!
 ! A82   A(37,38,40)      105.7269  105.7269  105.8661 calculate D2E/DX2 analyti!
 ! A83   A(37,38,41)      105.3688  105.3688  105.8565 calculate D2E/DX2 analyti!
 ! A84   A(39,38,40)      110.3871  110.3871  110.0826 calculate D2E/DX2 analyti!
 ! A85   A(39,38,41)      108.7857  108.7857  108.8541 calculate D2E/DX2 analyti!
 ! A86   A(40,38,41)      108.9648  108.9648  108.0292 calculate D2E/DX2 analyti!
 ! A87   A(38,39,42)      106.3636  106.3636  106.7135 calculate D2E/DX2 analyti!
 ! A88   A(38,39,43)      113.3877  113.3877  113.5027 calculate D2E/DX2 analyti!
 ! A89   A(38,39,44)      113.3317  113.3317  112.8507 calculate D2E/DX2 analyti!
 ! A90   A(42,39,43)      106.9748  106.9748  107.2842 calculate D2E/DX2 analyti!
 ! A91   A(42,39,44)      107.3431  107.3431  107.1946 calculate D2E/DX2 analyti!
 ! A92   A(43,39,44)      109.0375  109.0375  108.9344 calculate D2E/DX2 analyti!
 ! A93   A(38,40,66)      169.5327  161.8963  158.4494 calculate D2E/DX2 analyti!
 ! A94   A(37,45,46)      115.861   115.861   115.8931 calculate D2E/DX2 analyti!
 ! A95   A(37,45,47)      106.8304  106.8304  106.8153 calculate D2E/DX2 analyti!
 ! A96   A(37,45,48)      105.7597  105.7597  105.4856 calculate D2E/DX2 analyti!
 ! A97   A(46,45,47)      109.8576  109.8576  109.4644 calculate D2E/DX2 analyti!
 ! A98   A(46,45,48)      110.636   110.636   111.2601 calculate D2E/DX2 analyti!
 ! A99   A(47,45,48)      107.4915  107.4915  107.5058 calculate D2E/DX2 analyti!
 ! A100  A(45,46,49)      107.4854  107.4854  107.2192 calculate D2E/DX2 analyti!
 ! A101  A(45,46,50)      112.6292  112.6292  112.218  calculate D2E/DX2 analyti!
 ! A102  A(45,46,51)      113.2013  113.2013  114.4377 calculate D2E/DX2 analyti!
 ! A103  A(49,46,50)      107.5865  107.5865  107.548  calculate D2E/DX2 analyti!
 ! A104  A(49,46,51)      107.7309  107.7309  108.2063 calculate D2E/DX2 analyti!
 ! A105  A(50,46,51)      107.9589  107.9589  106.956  calculate D2E/DX2 analyti!
 ! A106  A(37,52,53)      115.4998  115.4998  116.0233 calculate D2E/DX2 analyti!
 ! A107  A(37,52,54)      106.0128  106.0128  105.9535 calculate D2E/DX2 analyti!
 ! A108  A(37,52,55)      105.7368  105.7368  105.1462 calculate D2E/DX2 analyti!
 ! A109  A(53,52,54)      110.1647  110.1647  109.7618 calculate D2E/DX2 analyti!
 ! A110  A(53,52,55)      110.4458  110.4458  110.666  calculate D2E/DX2 analyti!
 ! A111  A(54,52,55)      108.6645  108.6645  108.9683 calculate D2E/DX2 analyti!
 ! A112  A(52,53,56)      107.4601  107.4601  107.6079 calculate D2E/DX2 analyti!
 ! A113  A(52,53,57)      113.3221  113.3221  112.73   calculate D2E/DX2 analyti!
 ! A114  A(52,53,58)      112.4926  112.4926  113.6227 calculate D2E/DX2 analyti!
 ! A115  A(56,53,57)      108.7646  108.7646  105.914  calculate D2E/DX2 analyti!
 ! A116  A(56,53,58)      107.5242  107.5242  107.1006 calculate D2E/DX2 analyti!
 ! A117  A(57,53,58)      107.0872  107.0872  109.402  calculate D2E/DX2 analyti!
 ! A118  A(5,54,52)       159.2204  159.2204  149.8618 calculate D2E/DX2 analyti!
 ! A119  A(37,59,60)      116.8501  116.8501  116.6325 calculate D2E/DX2 analyti!
 ! A120  A(37,59,61)      105.3856  105.3856  105.5958 calculate D2E/DX2 analyti!
 ! A121  A(37,59,62)      105.9193  105.9193  105.8819 calculate D2E/DX2 analyti!
 ! A122  A(60,59,61)      111.5158  111.5158  111.1959 calculate D2E/DX2 analyti!
 ! A123  A(60,59,62)      107.2533  107.2533  109.059  calculate D2E/DX2 analyti!
 ! A124  A(61,59,62)      109.6743  109.6743  108.0534 calculate D2E/DX2 analyti!
 ! A125  A(59,60,63)      106.4524  106.4524  106.5611 calculate D2E/DX2 analyti!
 ! A126  A(59,60,64)      114.4432  114.4432  113.566  calculate D2E/DX2 analyti!
 ! A127  A(59,60,65)      110.9537  110.9537  112.453  calculate D2E/DX2 analyti!
 ! A128  A(63,60,64)      107.1362  107.1362  107.0799 calculate D2E/DX2 analyti!
 ! A129  A(63,60,65)      106.6231  106.6231  106.9054 calculate D2E/DX2 analyti!
 ! A130  A(64,60,65)      110.7622  110.7622  109.8563 calculate D2E/DX2 analyti!
 ! A131  A(5,61,59)       139.5944  139.5944  161.3303 calculate D2E/DX2 analyti!
 ! A132  A(36,62,59)      135.844   136.7555  130.7459 calculate D2E/DX2 analyti!
 ! A133  A(59,62,66)      145.6512  143.7191  135.4418 calculate D2E/DX2 analyti!
 ! A134  A(40,66,62)       50.3315   52.7113   44.473  calculate D2E/DX2 analyti!
 ! D1    D(1,2,3,4)         5.0814    5.0814    5.2956 calculate D2E/DX2 analyti!
 ! D2    D(1,2,3,12)     -173.9905 -173.9905 -173.666  calculate D2E/DX2 analyti!
 ! D3    D(20,2,3,4)      179.0258  179.0258  178.9994 calculate D2E/DX2 analyti!
 ! D4    D(20,2,3,12)      -0.046    -0.046     0.0378 calculate D2E/DX2 analyti!
 ! D5    D(1,2,20,11)     167.5531  167.5531  165.183  calculate D2E/DX2 analyti!
 ! D6    D(1,2,20,21)     -12.6025  -12.6025  -14.7228 calculate D2E/DX2 analyti!
 ! D7    D(3,2,20,11)       0.1947    0.1947    0.0126 calculate D2E/DX2 analyti!
 ! D8    D(3,2,20,21)    -179.961  -179.961  -179.8932 calculate D2E/DX2 analyti!
 ! D9    D(2,3,12,11)      -0.1084   -0.1084   -0.0729 calculate D2E/DX2 analyti!
 ! D10   D(2,3,12,13)     179.6926  179.6926  179.8398 calculate D2E/DX2 analyti!
 ! D11   D(4,3,12,11)    -179.0108 -179.0108 -178.8452 calculate D2E/DX2 analyti!
 ! D12   D(4,3,12,13)       0.7902    0.7902    1.0675 calculate D2E/DX2 analyti!
 ! D13   D(24,5,6,7)      179.715   179.715  -179.3792 calculate D2E/DX2 analyti!
 ! D14   D(24,5,6,18)      -0.4605   -0.4605   -0.4393 calculate D2E/DX2 analyti!
 ! D15   D(54,5,6,7)      -67.7169  -67.7169  -92.3473 calculate D2E/DX2 analyti!
 ! D16   D(54,5,6,18)     112.1076  112.1076   86.5926 calculate D2E/DX2 analyti!
 ! D17   D(61,5,6,7)      -63.542   -63.542   -87.1216 calculate D2E/DX2 analyti!
 ! D18   D(61,5,6,18)     116.2825  116.2825   91.8183 calculate D2E/DX2 analyti!
 ! D19   D(6,5,24,17)       0.3801    0.3801    0.74   calculate D2E/DX2 analyti!
 ! D20   D(6,5,24,25)    -178.9831 -178.9831 -178.3651 calculate D2E/DX2 analyti!
 ! D21   D(54,5,24,17)   -129.3519 -129.3519 -130.5339 calculate D2E/DX2 analyti!
 ! D22   D(54,5,24,25)     51.2849   51.2849   50.361  calculate D2E/DX2 analyti!
 ! D23   D(61,5,24,17)    -80.6513  -80.6513  -79.4689 calculate D2E/DX2 analyti!
 ! D24   D(61,5,24,25)     99.9855   99.9855  101.426  calculate D2E/DX2 analyti!
 ! D25   D(6,5,54,52)     -67.4089  -67.4089  -26.6688 calculate D2E/DX2 analyti!
 ! D26   D(24,5,54,52)     46.9007   46.9007   71.1287 calculate D2E/DX2 analyti!
 ! D27   D(6,5,61,59)    -120.9972 -120.9972 -135.2996 calculate D2E/DX2 analyti!
 ! D28   D(24,5,61,59)    -23.1526  -23.1526  -32.8193 calculate D2E/DX2 analyti!
 ! D29   D(5,6,18,17)       0.3946    0.3946    0.0259 calculate D2E/DX2 analyti!
 ! D30   D(5,6,18,19)    -179.1305 -179.1305  178.5468 calculate D2E/DX2 analyti!
 ! D31   D(7,6,18,17)    -179.7916 -179.7916  178.894  calculate D2E/DX2 analyti!
 ! D32   D(7,6,18,19)       0.6834    0.6834   -2.5852 calculate D2E/DX2 analyti!
 ! D33   D(22,8,9,10)     179.9946  179.9946  179.883  calculate D2E/DX2 analyti!
 ! D34   D(22,8,9,15)       0.0036    0.0036    0.1013 calculate D2E/DX2 analyti!
 ! D35   D(9,8,22,14)       0.1889    0.1889    0.3396 calculate D2E/DX2 analyti!
 ! D36   D(9,8,22,23)    -179.2306 -179.2306 -177.9611 calculate D2E/DX2 analyti!
 ! D37   D(8,9,15,14)      -0.1855   -0.1855   -0.4894 calculate D2E/DX2 analyti!
 ! D38   D(8,9,15,16)     179.32    179.32    177.2403 calculate D2E/DX2 analyti!
 ! D39   D(10,9,15,14)    179.824   179.824   179.7417 calculate D2E/DX2 analyti!
 ! D40   D(10,9,15,16)     -0.6705   -0.6705   -2.5287 calculate D2E/DX2 analyti!
 ! D41   D(20,11,12,3)      0.2172    0.2172    0.0765 calculate D2E/DX2 analyti!
 ! D42   D(20,11,12,13)  -179.5996 -179.5996 -179.8422 calculate D2E/DX2 analyti!
 ! D43   D(26,11,12,3)    176.7435  172.8051  174.4202 calculate D2E/DX2 analyti!
 ! D44   D(26,11,12,13)    -3.0733   -7.0117   -5.4985 calculate D2E/DX2 analyti!
 ! D45   D(12,11,20,2)     -0.2634   -0.2634   -0.0568 calculate D2E/DX2 analyti!
 ! D46   D(12,11,20,21)   179.89    179.89    179.8504 calculate D2E/DX2 analyti!
 ! D47   D(26,11,20,2)   -177.1001 -173.4925 -174.6599 calculate D2E/DX2 analyti!
 ! D48   D(26,11,20,21)     3.0534    6.6609    5.2473 calculate D2E/DX2 analyti!
 ! D49   D(12,11,26,14)   -66.9282  -62.8664  -51.7364 calculate D2E/DX2 analyti!
 ! D50   D(12,11,26,17)   171.5223  169.8749 -169.6387 calculate D2E/DX2 analyti!
 ! D51   D(12,11,26,29)    49.7245   53.0716   68.7301 calculate D2E/DX2 analyti!
 ! D52   D(20,11,26,14)   109.0494  108.5499  121.58   calculate D2E/DX2 analyti!
 ! D53   D(20,11,26,17)   -12.5001  -18.7088    3.6776 calculate D2E/DX2 analyti!
 ! D54   D(20,11,26,29)  -134.2979 -135.5122 -117.9535 calculate D2E/DX2 analyti!
 ! D55   D(22,14,15,9)      0.2781    0.2781    0.6428 calculate D2E/DX2 analyti!
 ! D56   D(22,14,15,16)  -179.2766 -179.2766 -177.2606 calculate D2E/DX2 analyti!
 ! D57   D(26,14,15,9)   -179.3307  177.1913  178.7089 calculate D2E/DX2 analyti!
 ! D58   D(26,14,15,16)     1.1145   -2.3635    0.8055 calculate D2E/DX2 analyti!
 ! D59   D(15,14,22,8)     -0.2989   -0.2989   -0.6297 calculate D2E/DX2 analyti!
 ! D60   D(15,14,22,23)   179.1309  179.1309  177.7183 calculate D2E/DX2 analyti!
 ! D61   D(26,14,22,8)    179.3306 -177.1562 -179.007  calculate D2E/DX2 analyti!
 ! D62   D(26,14,22,23)    -1.2397    2.2736   -0.659  calculate D2E/DX2 analyti!
 ! D63   D(15,14,26,11)   -62.1521  -61.4351  -64.2521 calculate D2E/DX2 analyti!
 ! D64   D(15,14,26,17)    56.02     63.7888   52.1331 calculate D2E/DX2 analyti!
 ! D65   D(15,14,26,29)   178.1075  179.55    175.8736 calculate D2E/DX2 analyti!
 ! D66   D(22,14,26,11)   118.3203  114.7046  113.527  calculate D2E/DX2 analyti!
 ! D67   D(22,14,26,17)  -123.5076 -120.0714 -130.0878 calculate D2E/DX2 analyti!
 ! D68   D(22,14,26,29)    -1.4201   -4.3103   -6.3472 calculate D2E/DX2 analyti!
 ! D69   D(24,17,18,6)     -0.1507   -0.1507    0.3945 calculate D2E/DX2 analyti!
 ! D70   D(24,17,18,19)   179.4138  179.4138 -178.2383 calculate D2E/DX2 analyti!
 ! D71   D(26,17,18,6)   -168.7333 -173.6599 -164.3777 calculate D2E/DX2 analyti!
 ! D72   D(26,17,18,19)    10.8312    5.9046   16.9895 calculate D2E/DX2 analyti!
 ! D73   D(18,17,24,5)     -0.1488   -0.1488   -0.7291 calculate D2E/DX2 analyti!
 ! D74   D(18,17,24,25)   179.231   179.231   178.3965 calculate D2E/DX2 analyti!
 ! D75   D(26,17,24,5)    169.2488  173.9672  165.2533 calculate D2E/DX2 analyti!
 ! D76   D(26,17,24,25)   -11.3714   -6.653   -15.6211 calculate D2E/DX2 analyti!
 ! D77   D(18,17,26,11)   -60.2622  -52.9305  -79.2268 calculate D2E/DX2 analyti!
 ! D78   D(18,17,26,14)  -177.797   179.8802  164.3336 calculate D2E/DX2 analyti!
 ! D79   D(18,17,26,29)    62.1866   65.6038   41.1834 calculate D2E/DX2 analyti!
 ! D80   D(24,17,26,11)   133.3112  134.7239  118.8078 calculate D2E/DX2 analyti!
 ! D81   D(24,17,26,14)    15.7765    7.5346    2.3682 calculate D2E/DX2 analyti!
 ! D82   D(24,17,26,29)  -104.2399 -106.7418 -120.782  calculate D2E/DX2 analyti!
 ! D83   D(11,26,29,27)   118.5732  112.4926  145.9032 calculate D2E/DX2 analyti!
 ! D84   D(11,26,29,28)   173.8487 -176.3513 -164.2646 calculate D2E/DX2 analyti!
 ! D85   D(14,26,29,27)  -125.0107 -126.1149  -95.6354 calculate D2E/DX2 analyti!
 ! D86   D(14,26,29,28)   -69.7352  -54.9588  -45.8032 calculate D2E/DX2 analyti!
 ! D87   D(17,26,29,27)    -1.509    -5.9408   26.9232 calculate D2E/DX2 analyti!
 ! D88   D(17,26,29,28)    53.7665   65.2153   76.7554 calculate D2E/DX2 analyti!
 ! D89   D(29,27,28,31)   -76.4319 -103.7096  -53.8694 calculate D2E/DX2 analyti!
 ! D90   D(29,27,28,32)    58.1227  101.606    69.1355 calculate D2E/DX2 analyti!
 ! D91   D(29,27,28,66)  -178.7004 -170.6444 -171.9323 calculate D2E/DX2 analyti!
 ! D92   D(30,27,28,31)   178.3005  152.7912 -174.586  calculate D2E/DX2 analyti!
 ! D93   D(30,27,28,32)   -47.145    -1.8932  -51.581  calculate D2E/DX2 analyti!
 ! D94   D(30,27,28,66)    76.0319   85.8564   67.3512 calculate D2E/DX2 analyti!
 ! D95   D(36,27,28,31)    35.4303   -2.0506   66.3634 calculate D2E/DX2 analyti!
 ! D96   D(36,27,28,32)   169.9849 -156.735  -170.6317 calculate D2E/DX2 analyti!
 ! D97   D(36,27,28,66)   -66.8382  -68.9854  -51.6995 calculate D2E/DX2 analyti!
 ! D98   D(28,27,29,26)    99.7635  109.1279  102.0558 calculate D2E/DX2 analyti!
 ! D99   D(30,27,29,26)  -126.641  -136.8841 -136.2345 calculate D2E/DX2 analyti!
 ! D100  D(36,27,29,26)    -8.9558    0.5186  -15.4293 calculate D2E/DX2 analyti!
 ! D101  D(28,27,30,33)   157.6182  151.7177  179.3193 calculate D2E/DX2 analyti!
 ! D102  D(28,27,30,34)    16.17     30.0808   61.1999 calculate D2E/DX2 analyti!
 ! D103  D(28,27,30,35)   -91.9941  -88.7646  -59.8763 calculate D2E/DX2 analyti!
 ! D104  D(29,27,30,33)    62.6809   81.9842   61.4848 calculate D2E/DX2 analyti!
 ! D105  D(29,27,30,34)   -78.7673  -39.6527  -56.6346 calculate D2E/DX2 analyti!
 ! D106  D(29,27,30,35)   173.0687 -158.4982 -177.7108 calculate D2E/DX2 analyti!
 ! D107  D(36,27,30,33)   -58.779   -53.5029  -61.6907 calculate D2E/DX2 analyti!
 ! D108  D(36,27,30,34)   159.7728 -175.1398 -179.8101 calculate D2E/DX2 analyti!
 ! D109  D(36,27,30,35)    51.6087   66.0147   59.1137 calculate D2E/DX2 analyti!
 ! D110  D(28,27,36,62)    33.04     53.9984   -7.2459 calculate D2E/DX2 analyti!
 ! D111  D(29,27,36,62)   123.002   120.6355  108.8799 calculate D2E/DX2 analyti!
 ! D112  D(30,27,36,62)  -119.8672 -102.2992 -128.8555 calculate D2E/DX2 analyti!
 ! D113  D(31,28,29,26)     4.9266   -1.4442   21.8962 calculate D2E/DX2 analyti!
 ! D114  D(32,28,29,26)   110.9397  134.9782  131.824  calculate D2E/DX2 analyti!
 ! D115  D(27,36,62,59)   172.7501  171.5355  171.2188 calculate D2E/DX2 analyti!
 ! D116  D(45,37,38,39)   -39.2255  -39.2255  -36.7715 calculate D2E/DX2 analyti!
 ! D117  D(45,37,38,40)  -162.7531 -162.7531 -160.3174 calculate D2E/DX2 analyti!
 ! D118  D(45,37,38,41)    81.935    81.935    85.1497 calculate D2E/DX2 analyti!
 ! D119  D(52,37,38,39)  -157.2294 -157.2294 -154.2534 calculate D2E/DX2 analyti!
 ! D120  D(52,37,38,40)    79.243    79.243    82.2007 calculate D2E/DX2 analyti!
 ! D121  D(52,37,38,41)   -36.0689  -36.0689  -32.3322 calculate D2E/DX2 analyti!
 ! D122  D(59,37,38,39)    85.2662   85.2662   87.6435 calculate D2E/DX2 analyti!
 ! D123  D(59,37,38,40)   -38.2615  -38.2615  -35.9025 calculate D2E/DX2 analyti!
 ! D124  D(59,37,38,41)  -153.5734 -153.5734 -150.4353 calculate D2E/DX2 analyti!
 ! D125  D(38,37,45,46)  -175.7663 -175.7663  175.5782 calculate D2E/DX2 analyti!
 ! D126  D(38,37,45,47)    61.4813   61.4813   53.3258 calculate D2E/DX2 analyti!
 ! D127  D(38,37,45,48)   -52.8272  -52.8272  -60.8667 calculate D2E/DX2 analyti!
 ! D128  D(52,37,45,46)   -57.7324  -57.7324  -66.9689 calculate D2E/DX2 analyti!
 ! D129  D(52,37,45,47)   179.5152  179.5152  170.7786 calculate D2E/DX2 analyti!
 ! D130  D(52,37,45,48)    65.2067   65.2067   56.5862 calculate D2E/DX2 analyti!
 ! D131  D(59,37,45,46)    59.4541   59.4541   50.9001 calculate D2E/DX2 analyti!
 ! D132  D(59,37,45,47)   -63.2983  -63.2983  -71.3524 calculate D2E/DX2 analyti!
 ! D133  D(59,37,45,48)  -177.6068 -177.6068  174.4551 calculate D2E/DX2 analyti!
 ! D134  D(38,37,52,53)   -43.8434  -43.8434  -55.5659 calculate D2E/DX2 analyti!
 ! D135  D(38,37,52,54)  -166.1348 -166.1348 -177.6322 calculate D2E/DX2 analyti!
 ! D136  D(38,37,52,55)    78.602    78.602    67.0517 calculate D2E/DX2 analyti!
 ! D137  D(45,37,52,53)  -163.0266 -163.0266 -174.7894 calculate D2E/DX2 analyti!
 ! D138  D(45,37,52,54)    74.682    74.682    63.1442 calculate D2E/DX2 analyti!
 ! D139  D(45,37,52,55)   -40.5813  -40.5813  -52.1719 calculate D2E/DX2 analyti!
 ! D140  D(59,37,52,53)    76.8745   76.8745   65.0829 calculate D2E/DX2 analyti!
 ! D141  D(59,37,52,54)   -45.4169  -45.4169  -56.9834 calculate D2E/DX2 analyti!
 ! D142  D(59,37,52,55)  -160.6801 -160.6801 -172.2995 calculate D2E/DX2 analyti!
 ! D143  D(38,37,59,60)   -60.0348  -60.0348  -65.3795 calculate D2E/DX2 analyti!
 ! D144  D(38,37,59,61)   175.5172  175.5172  170.5711 calculate D2E/DX2 analyti!
 ! D145  D(38,37,59,62)    59.3113   59.3113   56.1189 calculate D2E/DX2 analyti!
 ! D146  D(45,37,59,60)    63.6684   63.6684   58.6044 calculate D2E/DX2 analyti!
 ! D147  D(45,37,59,61)   -60.7796  -60.7796  -65.445  calculate D2E/DX2 analyti!
 ! D148  D(45,37,59,62)  -176.9856 -176.9856 -179.8972 calculate D2E/DX2 analyti!
 ! D149  D(52,37,59,60)  -178.3517 -178.3517  176.5097 calculate D2E/DX2 analyti!
 ! D150  D(52,37,59,61)    57.2003   57.2003   52.4603 calculate D2E/DX2 analyti!
 ! D151  D(52,37,59,62)   -59.0057  -59.0057  -61.9919 calculate D2E/DX2 analyti!
 ! D152  D(37,38,39,42)  -175.0348 -175.0348 -173.7405 calculate D2E/DX2 analyti!
 ! D153  D(37,38,39,43)   -57.7444  -57.7444  -55.7803 calculate D2E/DX2 analyti!
 ! D154  D(37,38,39,44)    67.2554   67.2554   68.7769 calculate D2E/DX2 analyti!
 ! D155  D(40,38,39,42)   -53.909   -53.909   -52.3449 calculate D2E/DX2 analyti!
 ! D156  D(40,38,39,43)    63.3814   63.3814   65.6153 calculate D2E/DX2 analyti!
 ! D157  D(40,38,39,44)  -171.6188 -171.6188 -169.8274 calculate D2E/DX2 analyti!
 ! D158  D(41,38,39,42)    65.6043   65.6043   65.8888 calculate D2E/DX2 analyti!
 ! D159  D(41,38,39,43)  -177.1053 -177.1053 -176.151  calculate D2E/DX2 analyti!
 ! D160  D(41,38,39,44)   -52.1055  -52.1055  -51.5938 calculate D2E/DX2 analyti!
 ! D161  D(37,38,40,66)   -37.2913   32.8351   72.4716 calculate D2E/DX2 analyti!
 ! D162  D(39,38,40,66)  -165.0619  -94.9356  -55.757  calculate D2E/DX2 analyti!
 ! D163  D(41,38,40,66)    75.5332  145.6595 -174.4977 calculate D2E/DX2 analyti!
 ! D164  D(38,40,66,62)    51.1036  -23.3055  -67.1762 calculate D2E/DX2 analyti!
 ! D165  D(37,45,46,49)   178.4768  178.4768  171.9605 calculate D2E/DX2 analyti!
 ! D166  D(37,45,46,50)   -63.195   -63.195   -70.1636 calculate D2E/DX2 analyti!
 ! D167  D(37,45,46,51)    59.6332   59.6332   51.9525 calculate D2E/DX2 analyti!
 ! D168  D(47,45,46,49)   -60.3806  -60.3806  -67.201  calculate D2E/DX2 analyti!
 ! D169  D(47,45,46,50)    57.9476   57.9476   50.675  calculate D2E/DX2 analyti!
 ! D170  D(47,45,46,51)  -179.2243 -179.2243  172.7911 calculate D2E/DX2 analyti!
 ! D171  D(48,45,46,49)    58.1407   58.1407   51.4741 calculate D2E/DX2 analyti!
 ! D172  D(48,45,46,50)   176.4689  176.4689  169.35   calculate D2E/DX2 analyti!
 ! D173  D(48,45,46,51)   -60.703   -60.703   -68.5339 calculate D2E/DX2 analyti!
 ! D174  D(37,52,53,56)  -163.7088 -163.7088  177.4377 calculate D2E/DX2 analyti!
 ! D175  D(37,52,53,57)   -43.5217  -43.5217  -66.1486 calculate D2E/DX2 analyti!
 ! D176  D(37,52,53,58)    78.135    78.135    59.0441 calculate D2E/DX2 analyti!
 ! D177  D(54,52,53,56)   -43.6599  -43.6599  -62.5347 calculate D2E/DX2 analyti!
 ! D178  D(54,52,53,57)    76.5272   76.5272   53.879  calculate D2E/DX2 analyti!
 ! D179  D(54,52,53,58)  -161.8162 -161.8162  179.0717 calculate D2E/DX2 analyti!
 ! D180  D(55,52,53,56)    76.3896   76.3896   57.7735 calculate D2E/DX2 analyti!
 ! D181  D(55,52,53,57)  -163.4233 -163.4233  174.1872 calculate D2E/DX2 analyti!
 ! D182  D(55,52,53,58)   -41.7666  -41.7666  -60.6201 calculate D2E/DX2 analyti!
 ! D183  D(37,52,54,5)     88.1919   88.1919   59.4944 calculate D2E/DX2 analyti!
 ! D184  D(53,52,54,5)    -37.4362  -37.4362  -66.4904 calculate D2E/DX2 analyti!
 ! D185  D(55,52,54,5)   -158.5563 -158.5563  172.176  calculate D2E/DX2 analyti!
 ! D186  D(37,59,60,63)  -169.4653 -169.4653 -172.0712 calculate D2E/DX2 analyti!
 ! D187  D(37,59,60,64)   -51.3207  -51.3207  -54.4252 calculate D2E/DX2 analyti!
 ! D188  D(37,59,60,65)    74.9087   74.9087   71.111  calculate D2E/DX2 analyti!
 ! D189  D(61,59,60,63)   -48.1854  -48.1854  -50.9366 calculate D2E/DX2 analyti!
 ! D190  D(61,59,60,64)    69.9592   69.9592   66.7093 calculate D2E/DX2 analyti!
 ! D191  D(61,59,60,65)  -163.8114 -163.8114 -167.7544 calculate D2E/DX2 analyti!
 ! D192  D(62,59,60,63)    71.9058   71.9058   68.1178 calculate D2E/DX2 analyti!
 ! D193  D(62,59,60,64)  -169.9496 -169.9496 -174.2362 calculate D2E/DX2 analyti!
 ! D194  D(62,59,60,65)   -43.7202  -43.7202  -48.6999 calculate D2E/DX2 analyti!
 ! D195  D(37,59,61,5)    -79.2247  -79.2247  -63.2082 calculate D2E/DX2 analyti!
 ! D196  D(60,59,61,5)    153.0398  153.0398  169.3891 calculate D2E/DX2 analyti!
 ! D197  D(62,59,61,5)     34.385    34.385    49.7344 calculate D2E/DX2 analyti!
 ! D198  D(37,59,62,36)   149.9318  146.9723  164.4891 calculate D2E/DX2 analyti!
 ! D199  D(37,59,62,66)   -55.4849  -82.1888  -94.0026 calculate D2E/DX2 analyti!
 ! D200  D(60,59,62,36)   -84.5908  -87.5502  -69.2559 calculate D2E/DX2 analyti!
 ! D201  D(60,59,62,66)    69.9925   43.2886   32.2524 calculate D2E/DX2 analyti!
 ! D202  D(61,59,62,36)    36.6671   33.7076   51.7378 calculate D2E/DX2 analyti!
 ! D203  D(61,59,62,66)  -168.7496  164.5465  153.2461 calculate D2E/DX2 analyti!
 ! D204  D(59,62,66,40)    21.8223   51.3972   67.4112 calculate D2E/DX2 analyti!
 --------------------------------------------------------------------------------
 Trust Radius=3.00D-01 FncErr=1.00D-07 GrdErr=1.00D-06 EigMax=2.50D+02 EigMin=1.00D-04
 Number of steps in this run=    396 maximum allowed number of steps=    396.
 Search for a saddle point of order  1.
 GradGradGradGradGradGradGradGradGradGradGradGradGradGradGradGradGradGrad

 Symmetry turned off by external request.
 Stoichiometry    C20H29BrCl6CoLiN7O(4)
 Framework group  C1[X(C20H29BrCl6CoLiN7O)]
 Deg. of freedom   192
 Full point group                 C1      NOp   1
                          Input orientation:                          
 ---------------------------------------------------------------------
 Center     Atomic      Atomic             Coordinates (Angstroms)
 Number     Number       Type             X           Y           Z
 ---------------------------------------------------------------------
      1          3           0       -0.658759   -5.046055   -3.464522
      2          7           0       -0.328360   -3.614087   -2.281904
      3          6           0       -0.938850   -4.009539   -1.125990
      4         17           0       -1.627943   -5.602297   -1.066315
      5          7           0        2.258511    2.612686   -2.483143
      6          6           0        3.150315    1.592844   -2.434234
      7         17           0        4.711576    1.687161   -3.173649
      8          7           0       -3.379063    2.028570    1.064048
      9          6           0       -3.607784    1.919886   -0.266919
     10         17           0       -5.034412    2.535326   -1.019589
     11          7           0       -0.243737   -1.951728   -0.790812
     12          6           0       -0.895581   -3.003072   -0.207241
     13         17           0       -1.508355   -2.955816    1.386606
     14          7           0       -1.643980    0.960847    0.090410
     15          6           0       -2.563912    1.271291   -0.872147
     16         17           0       -2.328418    0.846636   -2.528654
     17          7           0        1.366519    0.887015   -1.329793
     18          6           0        2.625226    0.539027   -1.732289
     19         17           0        3.333934   -0.987034   -1.353424
     20          6           0        0.069183   -2.364228   -2.022777
     21          1           0        0.594742   -1.739947   -2.730245
     22          6           0       -2.205916    1.444959    1.231308
     23          1           0       -1.722319    1.343608    2.193503
     24          6           0        1.211015    2.142238   -1.815916
     25          1           0        0.292810    2.694968   -1.669021
     26         27           0        0.156270    0.018404   -0.063170
     27          6           0        2.374114    0.555499    2.057851
     28          6           0        1.579836    1.728891    2.549180
     29          8           0        0.970931   -0.017569    1.799684
     30          6           0        3.163636   -0.538563    2.742578
     31          1           0        1.199292    2.277527    1.715884
     32          1           0        0.990469    1.802694    3.157501
     33          1           0        3.445579   -1.528819    2.376082
     34          1           0        2.911643   -0.607238    3.803146
     35          1           0        4.005356    0.148076    2.619548
     36          1           0        2.902221    0.814688    1.148883
     37          7           0        4.094783    5.501939   -0.190637
     38          6           0        4.225184    6.223312    1.147545
     39          6           0        5.572502    6.849696    1.473316
     40          1           0        3.952595    5.484963    1.911017
     41          1           0        3.467551    7.009403    1.127594
     42          1           0        5.495189    7.232893    2.493778
     43          1           0        6.394463    6.136200    1.463214
     44          1           0        5.824970    7.693183    0.827060
     45          6           0        4.834053    6.263338   -1.262075
     46          6           0        4.707479    5.713149   -2.673895
     47          1           0        5.881214    6.286248   -0.966766
     48          1           0        4.456188    7.288009   -1.212559
     49          1           0        5.267565    6.377664   -3.336765
     50          1           0        5.131727    4.713386   -2.774287
     51          1           0        3.677861    5.678807   -3.030794
     52          6           0        2.616323    5.461620   -0.569175
     53          6           0        1.660848    5.099231    0.558691
     54          1           0        2.532999    4.736868   -1.379988
     55          1           0        2.383697    6.455009   -0.962491
     56          1           0        0.706406    4.822541    0.103735
     57          1           0        2.012458    4.265767    1.172893
     58          1           0        1.473183    5.936991    1.232189
     59          6           0        4.568951    4.056783   -0.106756
     60          6           0        6.013160    3.832249    0.296390
     61          1           0        4.355648    3.626183   -1.081889
     62          1           0        3.943151    3.579611    0.650847
     63          1           0        6.223017    2.774582    0.119407
     64          1           0        6.739619    4.406461   -0.284857
     65          1           0        6.150968    4.003168    1.364680
     66         35           0        3.028670    3.677660    3.335588
 ---------------------------------------------------------------------
 Rotational constants (GHZ):           0.0863340           0.0405056           0.0376771
 General basis read from cards:  (5D, 7F)
 ======================================================================================================
                                       Pseudopotential Parameters
 ======================================================================================================
  Center     Atomic      Valence      Angular      Power
  Number     Number     Electrons     Momentum     of R      Exponent        Coefficient   SO-Coeffient
 ======================================================================================================
    1          3
                                   No pseudopotential on this center.
    2          7
                                   No pseudopotential on this center.
    3          6
                                   No pseudopotential on this center.
    4         17
                                   No pseudopotential on this center.
    5          7
                                   No pseudopotential on this center.
    6          6
                                   No pseudopotential on this center.
    7         17
                                   No pseudopotential on this center.
    8          7
                                   No pseudopotential on this center.
    9          6
                                   No pseudopotential on this center.
   10         17
                                   No pseudopotential on this center.
   11          7
                                   No pseudopotential on this center.
   12          6
                                   No pseudopotential on this center.
   13         17
                                   No pseudopotential on this center.
   14          7
                                   No pseudopotential on this center.
   15          6
                                   No pseudopotential on this center.
   16         17
                                   No pseudopotential on this center.
   17          7
                                   No pseudopotential on this center.
   18          6
                                   No pseudopotential on this center.
   19         17
                                   No pseudopotential on this center.
   20          6
                                   No pseudopotential on this center.
   21          1
                                   No pseudopotential on this center.
   22          6
                                   No pseudopotential on this center.
   23          1
                                   No pseudopotential on this center.
   24          6
                                   No pseudopotential on this center.
   25          1
                                   No pseudopotential on this center.
   26         27           17
                                      D and up 
                                                     1      434.1076104      -10.00000000    0.00000000
                                                     2       78.8402758      -66.72402760    0.00000000
                                                     2       19.6037749      -11.71922430    0.00000000
                                      S - D
                                                     0      151.2307582        3.00000000    0.00000000
                                                     1      169.6790026       20.15531100    0.00000000
                                                     2       64.9909423      413.37622440    0.00000000
                                                     2       12.5076287      133.87277050    0.00000000
                                      P - D
                                                     0       92.7319924        5.00000000    0.00000000
                                                     1      121.1910183        6.18923530    0.00000000
                                                     2       48.6265909      326.32159190    0.00000000
                                                     2       11.9966971       73.87889700    0.00000000
   27          6
                                   No pseudopotential on this center.
   28          6
                                   No pseudopotential on this center.
   29          8
                                   No pseudopotential on this center.
   30          6
                                   No pseudopotential on this center.
   31          1
                                   No pseudopotential on this center.
   32          1
                                   No pseudopotential on this center.
   33          1
                                   No pseudopotential on this center.
   34          1
                                   No pseudopotential on this center.
   35          1
                                   No pseudopotential on this center.
   36          1
                                   No pseudopotential on this center.
   37          7
                                   No pseudopotential on this center.
   38          6
                                   No pseudopotential on this center.
   39          6
                                   No pseudopotential on this center.
   40          1
                                   No pseudopotential on this center.
   41          1
                                   No pseudopotential on this center.
   42          1
                                   No pseudopotential on this center.
   43          1
                                   No pseudopotential on this center.
   44          1
                                   No pseudopotential on this center.
   45          6
                                   No pseudopotential on this center.
   46          6
                                   No pseudopotential on this center.
   47          1
                                   No pseudopotential on this center.
   48          1
                                   No pseudopotential on this center.
   49          1
                                   No pseudopotential on this center.
   50          1
                                   No pseudopotential on this center.
   51          1
                                   No pseudopotential on this center.
   52          6
                                   No pseudopotential on this center.
   53          6
                                   No pseudopotential on this center.
   54          1
                                   No pseudopotential on this center.
   55          1
                                   No pseudopotential on this center.
   56          1
                                   No pseudopotential on this center.
   57          1
                                   No pseudopotential on this center.
   58          1
                                   No pseudopotential on this center.
   59          6
                                   No pseudopotential on this center.
   60          6
                                   No pseudopotential on this center.
   61          1
                                   No pseudopotential on this center.
   62          1
                                   No pseudopotential on this center.
   63          1
                                   No pseudopotential on this center.
   64          1
                                   No pseudopotential on this center.
   65          1
                                   No pseudopotential on this center.
   66         35
                                   No pseudopotential on this center.
 ======================================================================================================
   709 basis functions,  1462 primitive gaussians,   748 cartesian basis functions
   183 alpha electrons      180 beta electrons
       nuclear repulsion energy      6722.9513113588 Hartrees.
 NAtoms=   66 NActive=   66 NUniq=   66 SFac= 1.00D+00 NAtFMM=   60 NAOKFM=T Big=T
 Integral buffers will be    131072 words long.
 Raffenetti 2 integral format.
 Two-electron integral symmetry is turned off.
 One-electron integrals computed using PRISM.
   1 Symmetry operations used in ECPInt.
 ECPInt:  NShTT=   32131 NPrTT=  189684 LenC2=   23831 LenP2D=   72977.
 LDataN:  DoStor=T MaxTD1= 4 Len=   56
 NBasis=   709 RedAO= T EigKep=  1.34D-03  NBF=   709
 NBsUse=   709 1.00D-06 EigRej= -1.00D+00 NBFU=   709
 ExpMin= 2.30D-02 ExpMax= 5.74D+05 ExpMxC= 5.74D+03 IAcc=3 IRadAn=         5 AccDes= 0.00D+00
 Harris functional with IExCor=20419 and IRadAn=       5 diagonalized for initial guess.
 HarFok:  IExCor=20419 AccDes= 0.00D+00 IRadAn=         5 IDoV= 1 UseB2=F ITyADJ=14
 ICtDFT=  3500011 ScaDFX=  1.000000  1.000000  1.000000  1.000000
 FoFCou: FMM=F IPFlag=           0 FMFlag=      100000 FMFlg1=        2001
         NFxFlg=           0 DoJE=T BraDBF=F KetDBF=T FulRan=T
         wScrn=  0.000000 ICntrl=       500 IOpCl=  0 I1Cent=   200000004 NGrid=           0
         NMat0=    1 NMatS0=      1 NMatT0=    0 NMatD0=    1 NMtDS0=    0 NMtDT0=    0
 Symmetry not used in FoFCou.
 Initial guess <Sx>= 0.0000 <Sy>= 0.0000 <Sz>= 1.5000 <S**2>= 3.7500 S= 1.5000
 Gradient too large for Newton-Raphson -- use scaled steepest descent instead.
 Gradient too large for Newton-Raphson -- use scaled steepest descent instead.
     Minimum is close to point  2 DX=  7.85D-03 DF= -3.19D-04 DXR=  1.93D-02 DFR=  3.71D-04 which will be used.
 Gradient too large for Newton-Raphson -- use scaled steepest descent instead.
     Accept linear search using points  1 and  2.
 Gradient too large for Newton-Raphson -- use scaled steepest descent instead.
     Minimum is close to point  5 DX=  4.88D-02 DF= -5.71D-04 DXR=  3.91D-02 DFR=  1.64D-03 which will be used.
 Gradient too large for Newton-Raphson -- use scaled steepest descent instead.
     Accept linear search using points  1 and  2.
 Gradient too large for Newton-Raphson -- use scaled steepest descent instead.
 Restarting incremental Fock formation.
 Gradient too large for Newton-Raphson -- use scaled steepest descent instead.
     Accept linear search using points  1 and  2.
 Gradient too large for Newton-Raphson -- use scaled steepest descent instead.
     Minimum is close to point  4 DX=  1.50D-01 DF= -1.69D-03 DXR=  9.07D-02 DFR=  1.18D-02 which will be used.
 Gradient too large for Newton-Raphson -- use scaled steepest descent instead.
     Minimum is close to point  3 DX= -2.06D-02 DF= -1.69D-04 DXR=  5.42D-02 DFR=  2.94D-03 which will be used.
 Gradient too large for Newton-Raphson -- use scaled steepest descent instead.
     Accept linear search using points  1 and  2.
 Gradient too large for Newton-Raphson -- use scaled steepest descent instead.
     Minimum is close to point  2 DX=  2.52D-02 DF= -4.29D-05 DXR=  4.81D-02 DFR=  2.31D-03 which will be used.
 Gradient too large for Newton-Raphson -- use scaled steepest descent instead.
 Gradient too large for Newton-Raphson -- use scaled steepest descent instead.
     Accept linear search using points  1 and  2.
 Gradient too large for Newton-Raphson -- use scaled steepest descent instead.
 Restarting incremental Fock formation.
 Gradient too large for Newton-Raphson -- use scaled steepest descent instead.
 Gradient too large for Newton-Raphson -- use scaled steepest descent instead.
     Accept linear search using points  1 and  2.
     Minimum is close to point  2 DX= -8.46D-03 DF= -2.92D-06 DXR=  6.55D-03 DFR=  7.01D-05 which will be used.
 Gradient too large for Newton-Raphson -- use scaled steepest descent instead.
     Accept linear search using points  1 and  2.
 Gradient too large for Newton-Raphson -- use scaled steepest descent instead.
 Gradient too large for Newton-Raphson -- use scaled steepest descent instead.
     Accept linear search using points  1 and  2.
 Gradient too large for Newton-Raphson -- use scaled steepest descent instead.
 Restarting incremental Fock formation.
 Gradient too large for Newton-Raphson -- use scaled steepest descent instead.
     Minimum is close to point  3 DX=  3.71D-02 DF= -1.27D-05 DXR=  8.49D-02 DFR=  7.26D-03 which will be used.
 Gradient too large for Newton-Raphson -- use scaled steepest descent instead.
     Minimum is close to point  5 DX= -7.07D-02 DF= -3.39D-07 DXR=  9.79D-03 DFR=  9.60D-05 which will be used.
 Gradient too large for Newton-Raphson -- use scaled steepest descent instead.
 Gradient too large for Newton-Raphson -- use scaled steepest descent instead.
     Accept linear search using points  1 and  2.
 Gradient too large for Newton-Raphson -- use scaled steepest descent instead.
     Accept linear search using points  1 and  2.
 Gradient too large for Newton-Raphson -- use scaled steepest descent instead.
 Gradient too large for Newton-Raphson -- use scaled steepest descent instead.
 Restarting incremental Fock formation.
     Minimum is close to point  3 DX= -4.33D-02 DF= -8.58D-06 DXR=  9.48D-02 DFR=  9.07D-03 which will be used.
 Gradient too large for Newton-Raphson -- use scaled steepest descent instead.
 Gradient too large for Newton-Raphson -- use scaled steepest descent instead.
     Accept linear search using points  1 and  2.
 Gradient too large for Newton-Raphson -- use scaled steepest descent instead.
     Accept linear search using points  3 and  4.
     Minimum is close to point  4 DX= -4.31D-02 DF= -4.08D-07 DXR=  1.46D-02 DFR=  3.75D-04 which will be used.
 Gradient too large for Newton-Raphson -- use scaled steepest descent instead.
     Minimum is close to point  3 DX=  3.37D-02 DF= -6.74D-06 DXR=  7.76D-02 DFR=  6.06D-03 which will be used.
 Gradient too large for Newton-Raphson -- use scaled steepest descent instead.
 Gradient too large for Newton-Raphson -- use scaled steepest descent instead.
 Restarting incremental Fock formation.
 LinEq1:  Iter=  0 NonCon=     1 RMS=4.54D-05 Max=7.94D-03 NDo=     1
 AX will form     1 AO Fock derivatives at one time.
 LinEq1:  Iter=  1 NonCon=     1 RMS=1.47D-05 Max=2.05D-03 NDo=     1
 LinEq1:  Iter=  2 NonCon=     1 RMS=1.29D-05 Max=1.14D-03 NDo=     1
 LinEq1:  Iter=  3 NonCon=     1 RMS=6.06D-06 Max=5.11D-04 NDo=     1
 LinEq1:  Iter=  4 NonCon=     1 RMS=3.72D-06 Max=3.71D-04 NDo=     1
 LinEq1:  Iter=  5 NonCon=     1 RMS=2.62D-06 Max=2.58D-04 NDo=     1
 LinEq1:  Iter=  6 NonCon=     1 RMS=1.35D-06 Max=1.22D-04 NDo=     1
 LinEq1:  Iter=  7 NonCon=     1 RMS=9.75D-07 Max=7.03D-05 NDo=     1
 LinEq1:  Iter=  8 NonCon=     1 RMS=5.37D-07 Max=3.35D-05 NDo=     1
 LinEq1:  Iter=  9 NonCon=     1 RMS=4.53D-07 Max=3.30D-05 NDo=     1
 LinEq1:  Iter= 10 NonCon=     1 RMS=2.84D-07 Max=1.63D-05 NDo=     1
 LinEq1:  Iter= 11 NonCon=     1 RMS=1.68D-07 Max=1.07D-05 NDo=     1
 LinEq1:  Iter= 12 NonCon=     1 RMS=1.09D-07 Max=1.05D-05 NDo=     1
 LinEq1:  Iter= 13 NonCon=     1 RMS=6.76D-08 Max=3.92D-06 NDo=     1
 LinEq1:  Iter= 14 NonCon=     1 RMS=4.53D-08 Max=2.95D-06 NDo=     1
 LinEq1:  Iter= 15 NonCon=     1 RMS=2.59D-08 Max=2.34D-06 NDo=     1
 LinEq1:  Iter= 16 NonCon=     1 RMS=1.30D-08 Max=9.38D-07 NDo=     1
 LinEq1:  Iter= 17 NonCon=     1 RMS=7.89D-09 Max=5.02D-07 NDo=     1
 LinEq1:  Iter= 18 NonCon=     0 RMS=5.03D-09 Max=2.87D-07 NDo=     1
 Linear equations converged to 4.376D-08 4.376D-07 after    18 iterations.
     Accept linear search using points  1 and  2.
 LinEq1:  Iter=  0 NonCon=     1 RMS=1.35D-05 Max=9.77D-04 NDo=     1
 LinEq1:  Iter=  1 NonCon=     1 RMS=1.24D-05 Max=9.56D-04 NDo=     1
 LinEq1:  Iter=  2 NonCon=     1 RMS=7.06D-06 Max=6.45D-04 NDo=     1
 LinEq1:  Iter=  3 NonCon=     1 RMS=6.97D-06 Max=8.70D-04 NDo=     1
 LinEq1:  Iter=  4 NonCon=     1 RMS=2.84D-06 Max=2.57D-04 NDo=     1
 LinEq1:  Iter=  5 NonCon=     1 RMS=2.06D-06 Max=1.83D-04 NDo=     1
 LinEq1:  Iter=  6 NonCon=     1 RMS=1.47D-06 Max=1.31D-04 NDo=     1
 LinEq1:  Iter=  7 NonCon=     1 RMS=1.09D-06 Max=8.47D-05 NDo=     1
 LinEq1:  Iter=  8 NonCon=     1 RMS=7.13D-07 Max=6.92D-05 NDo=     1
 LinEq1:  Iter=  9 NonCon=     1 RMS=4.10D-07 Max=3.93D-05 NDo=     1
 LinEq1:  Iter= 10 NonCon=     1 RMS=2.30D-07 Max=1.49D-05 NDo=     1
 LinEq1:  Iter= 11 NonCon=     1 RMS=1.47D-07 Max=8.27D-06 NDo=     1
 LinEq1:  Iter= 12 NonCon=     1 RMS=9.42D-08 Max=7.18D-06 NDo=     1
 LinEq1:  Iter= 13 NonCon=     1 RMS=7.01D-08 Max=4.83D-06 NDo=     1
 LinEq1:  Iter= 14 NonCon=     1 RMS=3.89D-08 Max=2.51D-06 NDo=     1
 LinEq1:  Iter= 15 NonCon=     1 RMS=2.16D-08 Max=1.32D-06 NDo=     1
 LinEq1:  Iter= 16 NonCon=     1 RMS=1.44D-08 Max=8.26D-07 NDo=     1
 LinEq1:  Iter= 17 NonCon=     1 RMS=8.24D-09 Max=7.55D-07 NDo=     1
 LinEq1:  Iter= 18 NonCon=     0 RMS=3.94D-09 Max=3.25D-07 NDo=     1
 Linear equations converged to 4.376D-08 4.376D-07 after    18 iterations.
     Minimum is close to point  2 DX=  8.08D-03 DF= -2.36D-09 DXR=  8.02D-03 DFR=  6.43D-05 which will be used.
 LinEq1:  Iter=  0 NonCon=     1 RMS=1.07D-07 Max=1.10D-05 NDo=     1
 LinEq1:  Iter=  1 NonCon=     1 RMS=7.29D-08 Max=6.34D-06 NDo=     1
 LinEq1:  Iter=  2 NonCon=     1 RMS=5.35D-08 Max=5.05D-06 NDo=     1
 LinEq1:  Iter=  3 NonCon=     1 RMS=4.00D-08 Max=3.92D-06 NDo=     1
 LinEq1:  Iter=  4 NonCon=     1 RMS=3.03D-08 Max=3.11D-06 NDo=     1
 LinEq1:  Iter=  5 NonCon=     1 RMS=2.52D-08 Max=2.08D-06 NDo=     1
 LinEq1:  Iter=  6 NonCon=     1 RMS=1.63D-08 Max=1.02D-06 NDo=     1
 LinEq1:  Iter=  7 NonCon=     1 RMS=1.06D-08 Max=6.81D-07 NDo=     1
 LinEq1:  Iter=  8 NonCon=     1 RMS=5.85D-09 Max=4.07D-07 NDo=     1
 LinEq1:  Iter=  9 NonCon=     1 RMS=3.67D-09 Max=3.28D-07 NDo=     1
 LinEq1:  Iter= 10 NonCon=     1 RMS=2.37D-09 Max=1.90D-07 NDo=     1
 LinEq1:  Iter= 11 NonCon=     1 RMS=1.82D-09 Max=1.43D-07 NDo=     1
 LinEq1:  Iter= 12 NonCon=     1 RMS=1.22D-09 Max=9.31D-08 NDo=     1
 LinEq1:  Iter= 13 NonCon=     1 RMS=7.49D-10 Max=5.55D-08 NDo=     1
 LinEq1:  Iter= 14 NonCon=     1 RMS=4.85D-10 Max=3.67D-08 NDo=     1
 LinEq1:  Iter= 15 NonCon=     1 RMS=2.76D-10 Max=1.75D-08 NDo=     1
 LinEq1:  Iter= 16 NonCon=     1 RMS=1.76D-10 Max=1.34D-08 NDo=     1
 LinEq1:  Iter= 17 NonCon=     1 RMS=1.12D-10 Max=7.49D-09 NDo=     1
 LinEq1:  Iter= 18 NonCon=     1 RMS=7.56D-11 Max=4.72D-09 NDo=     1
 LinEq1:  Iter= 19 NonCon=     0 RMS=4.94D-11 Max=2.30D-09 NDo=     1
 Linear equations converged to 3.377D-10 3.377D-09 after    19 iterations.
 SCF Done:  E(UCAM-B3LYP) =  -6722.55700532     a.u. after   37 cycles
            Convg  =    0.4331D-06                   162 Fock formations.
              S**2 =  3.7551                  -V/T =  2.0107
 <Sx>= 0.0000 <Sy>= 0.0000 <Sz>= 1.5000 <S**2>= 3.7551 S= 1.5013
 <L.S>=  0.00000000000    
 Annihilation of the first spin contaminant:
 S**2 before annihilation     3.7551,   after     3.7500
 DoSCS=F DFT=T ScalE2(SS,OS)=  1.000000  1.000000
 Range of M.O.s used for correlation:     1   709
 NBasis=   709 NAE=   183 NBE=   180 NFC=     0 NFV=     0
 NROrb=    709 NOA=   183 NOB=   180 NVA=   526 NVB=   529
   1 Symmetry operations used in ECPInt.
 ECPInt:  NShTT=   32131 NPrTT=  189684 LenC2=   23831 LenP2D=   72977.
 LDataN:  DoStor=T MaxTD1= 5 Len=  102
 Number of processors reduced to  12 by ecpmxn.
 Symmetrizing basis deriv contribution to polar:
 IMax=3 JMax=2 DiffMx= 0.00D+00
 G2DrvN: will do    67 centers at a time, making    1 passes.
 Calling FoFCou, ICntrl=  3107 FMM=T I1Cent=   0 AccDes= 0.00D+00.
 End of G2Drv F.D. properties file   721 does not exist.
 End of G2Drv F.D. properties file   722 does not exist.
 End of G2Drv F.D. properties file   788 does not exist.
          IDoAtm=00110110111111111111111111111111111111111111111111
          IDoAtm=1111111111111111
          Differentiating once with respect to electric field.
                with respect to dipole field.
          Differentiating once with respect to nuclear coordinates.
 CalDSu exits because no D1Ps are significant.
          There are   189 degrees of freedom in the 1st order CPHF.  IDoFFX=6 NUNeed=     3.
    189 vectors produced by pass  0 Test12= 1.91D-13 1.00D-09 XBig12= 4.26D+02 5.93D+00.
 AX will form    96 AO Fock derivatives at one time.
    189 vectors produced by pass  1 Test12= 1.91D-13 1.00D-09 XBig12= 6.99D+01 1.23D+00.
    189 vectors produced by pass  2 Test12= 1.91D-13 1.00D-09 XBig12= 2.39D+00 1.55D-01.
    189 vectors produced by pass  3 Test12= 1.91D-13 1.00D-09 XBig12= 5.58D-02 1.87D-02.
    189 vectors produced by pass  4 Test12= 1.91D-13 1.00D-09 XBig12= 7.02D-04 2.05D-03.
    189 vectors produced by pass  5 Test12= 1.91D-13 1.00D-09 XBig12= 7.52D-06 3.08D-04.
    141 vectors produced by pass  6 Test12= 1.91D-13 1.00D-09 XBig12= 8.97D-08 3.13D-05.
     80 vectors produced by pass  7 Test12= 1.91D-13 1.00D-09 XBig12= 7.91D-10 1.94D-06.
     32 vectors produced by pass  8 Test12= 1.91D-13 1.00D-09 XBig12= 8.21D-12 1.75D-07.
      3 vectors produced by pass  9 Test12= 1.91D-13 1.00D-09 XBig12= 8.83D-14 1.85D-08.
      3 vectors produced by pass 10 Test12= 1.91D-13 1.00D-09 XBig12= 1.20D-15 3.09D-09.
 InvSVY:  IOpt=1 It=  1 EMax= 2.13D-14
 Solved reduced A of dimension  1393 with   189 vectors.
 Isotropic polarizability for W=    0.000000      371.02 Bohr**3.
 End of Minotr F.D. properties file   721 does not exist.
 End of Minotr F.D. properties file   722 does not exist.
 End of Minotr F.D. properties file   788 does not exist.

 **********************************************************************

            Population analysis using the SCF density.

 **********************************************************************

 Alpha  occ. eigenvalues -- -482.65079-101.64883-101.60521-101.60517-101.60119
 Alpha  occ. eigenvalues -- -101.57582-101.55540 -61.73244 -56.30114 -56.29968
 Alpha  occ. eigenvalues --  -56.29932 -19.18078 -14.54809 -14.42727 -14.42627
 Alpha  occ. eigenvalues --  -14.41225 -14.38255 -14.37965 -14.33842 -10.34290
 Alpha  occ. eigenvalues --  -10.34271 -10.33901 -10.32706 -10.32346 -10.32224
 Alpha  occ. eigenvalues --  -10.32052 -10.31923 -10.31543 -10.31282 -10.30887
[...]
 34,-0.00004442,-0.00000337,0.00005086,-0.00004013,0.00015538,0.0000557
 8,-0.00016558,-0.00004492,0.00007619,-0.00004005,-0.02077032,-0.015826
 83,0.01744356,-0.18896967,-0.09232949,0.09745468,0.00067141,0.00025449
 ,-0.00008997,-0.00453426,0.00135925,-0.00395893,0.00499409,0.00256016,
 -0.00375648,0.20468577,0.,0.,0.,0.,0.,0.,0.00000350,0.00000724,0.00000
 081,-0.00000261,-0.00000874,-0.00000303,0.,0.,0.,-0.00026449,-0.000009
 04,0.00012848,0.00015341,0.00003742,-0.00003838,0.,0.,0.,0.00000949,-0
 .00000277,0.00000710,-0.00000974,0.00000349,-0.00000503,-0.00000538,-0
 .00002065,-0.00002007,0.00000341,0.00001017,0.00000277,0.00000059,-0.0
 0000201,-0.00000467,-0.00002132,0.00000274,-0.00000823,0.00000061,0.00
 000345,0.00001959,0.00000034,-0.00000308,-0.00001030,0.00008266,-0.000
 01218,-0.00005796,0.00001432,-0.00003145,-0.00000461,-0.00000687,0.000
 01599,-0.00001198,-0.00000446,0.00000992,0.00001946,-0.00000044,0.0000
 0090,0.00000229,0.00001037,-0.00000847,-0.00000298,0.00000467,0.000002
 01,-0.00000430,0.00003506,0.00001473,-0.00002049,0.00000934,0.00000578
 ,-0.00000069,0.00005255,0.00001970,0.00010241,0.00011241,0.00004638,-0
 .00005941,0.00007309,0.00003946,0.00001366,-0.00013958,-0.00008607,-0.
 00006847,-0.00000415,0.00001819,0.00002159,0.00000378,0.00000101,0.000
 00378,-0.00000505,0.00000390,0.00000044,0.00000150,-0.00000230,-0.0000
 0441,-0.00001324,-0.00000957,0.00000718,-0.00000520,0.00000740,-0.0000
 3199,0.00001524,0.00002105,0.00005202,-0.00072503,0.00097686,-0.000783
 92,0.00023745,-0.00012507,-0.00023635,0.00000541,0.00005639,-0.0001114
 5,-0.00001019,0.00002538,0.00000472,-0.00002893,0.00001313,0.00002639,
 -0.00002282,0.00004682,0.00004548,0.00014400,-0.00028638,-0.00044777,-
 0.00001027,-0.00000902,0.00000362,0.00048287,-0.00091641,0.00081644,-0
 .00008087,0.00014725,-0.00008858,0.00102167,-0.00148328,0.00116189,0.0
 0005239,0.00010568,-0.00017664,0.00000774,-0.00001685,-0.00002556,-0.0
 0012592,-0.00000762,-0.00012002,0.00002688,-0.00004512,-0.00005088,0.0
 0022280,0.00021708,0.00014306,-0.00003729,-0.00001449,-0.00009545,-0.0
 0003559,0.00002206,0.00000609,-0.00010157,0.00000072,-0.00002506,-0.00
 002823,-0.00000087,0.00002261,0.00000914,-0.00000696,0.00002624,0.0000
 1296,-0.00001114,0.00001287,0.00649259,0.00211546,-0.00430311,-0.09375
 948,-0.10805574,0.06491540,-0.00054426,-0.00016977,0.00006623,0.001641
 37,0.00074597,0.00029343,-0.02397863,-0.01332153,0.01698437,0.10126916
 ,0.11630720,0.,0.,0.,0.,0.,0.,-0.00000551,-0.00001076,-0.00000005,0.00
 000402,0.00001137,0.00000290,0.,0.,0.,-0.00010006,0.00000509,0.0000339
 6,0.00005336,0.00002497,0.00001400,0.,0.,0.,-0.00001368,0.00000502,-0.
 00001167,0.00001612,-0.00000792,0.00000822,0.00001126,0.00002197,0.000
 02565,-0.00000640,-0.00001246,-0.00000043,0.00000082,0.00000256,0.0000
 0300,0.00004107,-0.00001827,0.00000917,-0.00000627,-0.00000079,-0.0000
 2278,0.00000123,0.00000122,0.00001084,0.00000989,-0.00001346,0.0000189
 4,0.00002050,-0.00000010,-0.00000233,0.00000762,-0.00000844,0.00000980
 ,0.00000452,-0.00001092,-0.00002081,-0.00000123,-0.00000045,-0.0000016
 2,-0.00002287,0.00001586,0.00000572,-0.00000742,-0.00000109,0.00000581
 ,0.00001999,0.00002983,-0.00003199,0.00000729,0.00000388,0.00000123,-0
 .00008494,0.00000420,-0.00014674,0.00008939,-0.00005601,-0.00001249,-0
 .00030268,-0.00048315,-0.00027192,0.00012935,0.00031119,0.00022677,-0.
 00002146,-0.00001388,-0.00000344,0.00003285,0.00004730,-0.00000569,0.0
 0002427,0.00003339,0.00004386,0.00000252,0.00001023,0.00000426,0.00001
 001,0.00000155,0.00000168,0.00000622,-0.00001642,0.00001473,-0.0000134
 1,0.00000139,-0.00001457,0.00109514,0.00060843,0.00026920,0.00016759,0
 .00028602,-0.00004074,0.00032035,-0.00006764,0.00042267,-0.00011119,0.
 00006097,-0.00008599,-0.00008970,-0.00008500,0.00003681,-0.00018889,0.
 00020689,-0.00001617,0.00001318,0.00002938,-0.00060928,-0.00004348,-0.
 00000268,-0.00000214,-0.00019009,0.00100588,-0.00004124,-0.00002856,0.
 00015701,0.00008840,-0.00062305,0.00083389,-0.00017754,-0.00000534,-0.
 00009261,0.00001491,-0.00000937,0.00000928,-0.00001093,-0.00007189,-0.
 00015208,-0.00016724,0.00004237,-0.00014575,-0.00000622,0.00013719,-0.
 00032710,0.00003887,-0.00002507,-0.00001210,0.00006750,-0.00002270,-0.
 00000595,0.00001721,0.00006491,0.00000562,0.00001683,-0.00000507,0.000
 00312,-0.00000517,0.00000807,0.00002903,-0.00008213,-0.00000317,0.0000
 1836,-0.00002607,-0.00915280,-0.00939850,0.00870892,0.09750112,0.06532
 560,-0.12268437,0.00052276,-0.00028669,0.00039027,-0.00242509,0.000899
 31,-0.00086006,-0.00290346,-0.00149165,0.00077119,-0.10650926,-0.07415
 073,0.12563420,0.,0.,0.,0.,0.,0.,-0.00000740,-0.00001015,0.00000572,0.
 00000199,0.00000880,0.00000433,0.,0.,0.,-0.00022623,0.00018184,-0.0000
 0909,0.00001939,-0.00001571,0.00001762,0.,0.,0.,-0.00001338,0.00000440
 ,-0.00001060,0.00001936,-0.00000891,0.00001226,0.00000160,0.00001944,0
 .00005714,-0.00000233,-0.00002579,-0.00002299,-0.00000277,0.00000453,0
 .00001524,0.00003312,-0.00002070,0.00003666,0.00001096,-0.00001657,-0.
 00004725,-0.00000806,0.00000548,0.00003304,-0.00010781,-0.00020713,0.0
 0023609,0.00006138,0.00008552,-0.00004937,0.00002263,-0.00007082,0.000
 03645,0.00001764,0.00000145,-0.00003804,0.00000314,0.00000599,0.000004
 20,-0.00003344,0.00002337,-0.00001912,-0.00001489,-0.00000580,0.000013
 64,0.00019783,0.00017452,-0.00019897,-0.00000634,-0.00000095,-0.000010
 51,-0.00005609,0.00006817,-0.00043247,0.00035497,-0.00016470,-0.000053
 90,-0.00081440,-0.00125913,-0.00071686,0.00025022,0.00084507,0.0006192
 7,-0.00003552,0.00000469,0.00001701,0.00005829,0.00008817,-0.00001839,
 0.00004396,0.00007245,0.00010979,0.00000378,0.00003198,0.00000365,0.00
 000087,-0.00001003,0.00000768,0.00002747,-0.00003604,0.00000205,-0.000
 03929,0.00000190,-0.00001037,0.00079636,-0.00015674,0.00021596,0.00011
 713,0.00060209,-0.00058762,0.00017334,0.00017728,0.00027117,-0.0004654
 2,0.00029497,0.00004380,-0.00006927,-0.00010249,0.00020008,-0.00000563
 ,0.00012316,0.00000673,0.00039311,-0.00030133,0.00001427,-0.00005940,-
 0.00002149,-0.00000109,-0.00031665,-0.00025070,0.00012390,0.00012484,0
 .00001323,-0.00007144,0.00005988,0.00012703,0.00009308,0.00011968,0.00
 005102,-0.00001526,-0.00001022,0.00007766,-0.00001649,-0.00016829,-0.0
 0000896,0.00000986,0.00002578,-0.00006544,0.00004156,-0.00002826,-0.00
 004633,-0.00008451,0.00001126,0.00004528,0.00003568,0.00010968,0.00003
 953,0.00015603,-0.00006826,0.00012252,0.00009254,-0.00000297,-0.000005
 64,0.00002257,-0.00005909,-0.00000459,-0.00012666,-0.00003986,0.000017
 30,0.00001941,-0.00170461,-0.01123684,-0.03305244,-0.05070001,-0.00180
 418,-0.00663820,-0.00564536,0.00189619,-0.00151000,0.00140058,-0.00001
 700,-0.00022961,-0.00035006,0.00073072,0.00597850,0.00178032,0.0077871
 9,0.02178887,0.05396928,0.,0.,0.,0.,0.,0.,-0.00000294,-0.00000358,0.00
 000362,-0.00000009,0.00000216,0.00000285,0.,0.,0.,0.00016905,0.0000090
 0,-0.00001936,-0.00011667,-0.00002290,-0.00003577,0.,0.,0.,-0.00000779
 ,0.00000322,-0.00000662,0.00001198,-0.00000665,0.00000765,-0.00000057,
 0.00000625,0.00003053,0.00000162,-0.00001286,-0.00001866,-0.00000322,0
 .00000195,0.00001176,0.00002329,-0.00001650,0.00002107,0.00000414,-0.0
 0000798,-0.00002701,-0.00000409,0.00000221,0.00001850,-0.00009114,-0.0
 0005919,0.00009535,0.00004930,0.00004625,-0.00004009,-0.00000526,-0.00
 002528,0.00001777,0.00001014,0.00000412,-0.00002041,0.00000285,0.00000
 311,0.00000287,-0.00002258,0.00001448,-0.00000962,-0.00000802,-0.00000
 144,0.00000739,-0.00001209,0.00006020,-0.00001414,-0.00000084,0.000003
 72,-0.00000160,-0.00003660,0.00003679,-0.00024080,0.00004354,-0.000051
 78,-0.00005970,-0.00029336,-0.00050610,-0.00021153,0.00016764,0.000325
 06,0.00028258,-0.00003775,-0.00003117,-0.00000687,0.00002683,0.0000457
 4,-0.00001436,0.00001116,0.00001404,0.00003263,0.00000505,0.00001580,0
 .00000392,0.00001719,0.00000527,0.00000706,0.00000742,-0.00002093,0.00
 002586,-0.00001122,-0.00001031,-0.00002465,-0.00065838,0.00060908,0.00
 062295,0.00015490,0.00019232,0.00033805,0.00013482,-0.00155114,-0.0000
 7920,0.00035319,0.00013865,-0.00019995,-0.00013145,0.00003113,-0.00016
 261,-0.00000575,-0.00006276,-0.00002535,-0.00017228,-0.00286991,0.0000
 9014,-0.00015152,0.00010984,-0.00005730,-0.00018676,-0.00035520,0.0001
 3779,0.00001353,0.00004888,-0.00011254,0.00003270,0.00014839,0.0001925
 6,0.00012370,0.00001136,0.00004714,-0.00000118,0.00000626,-0.00002266,
 -0.00006101,-0.00003373,-0.00008650,0.00001093,-0.00002386,-0.00000807
 ,0.00035446,0.00003688,-0.00000927,-0.00001389,0.00003858,-0.00001679,
 -0.00002445,-0.00001278,-0.00002119,-0.00005000,-0.00002546,-0.0000268
 2,-0.00000752,-0.00001948,0.00000625,-0.00000576,0.00001001,-0.0000491
 7,0.00002890,-0.00001179,-0.00000700,0.00047618,0.00074078,0.00703150,
 -0.00339108,-0.06349187,-0.06369767,0.00083941,0.00104830,0.00016754,-
 0.00048512,-0.00004297,-0.00066434,-0.00159284,-0.00624514,-0.03182149
 ,0.00205505,0.00358339,0.01676618,0.00170424,0.06846349,0.,0.,0.,0.,0.
 ,0.,0.00000412,0.00000938,0.00000190,-0.00000460,-0.00001156,-0.000001
 75,0.,0.,0.,-0.00001490,0.00005132,-0.00003570,-0.00003752,-0.00001947
 ,-0.00000111,0.,0.,0.,0.00001394,-0.00000507,0.00001051,-0.00001344,0.
 00000659,-0.00000584,-0.00001310,-0.00002389,-0.00000961,0.00000821,0.
 00000646,-0.00001097,-0.00000264,-0.00000177,0.00000335,-0.00003954,0.
 00000990,0.00000304,0.00001155,-0.00000514,0.00001065,-0.00000483,0.00
 000005,-0.00000118,-0.00006204,-0.00005579,0.00005670,0.00000108,0.000
 06235,-0.00002466,0.00000989,-0.00003221,0.00000930,0.00000145,0.00001
 565,0.00001229,0.00000235,0.00000384,0.00000371,0.00001462,-0.00001165
 ,-0.00001497,0.00000321,0.00000045,-0.00000262,0.00006196,0.00002100,-
 0.00004492,-0.00000496,-0.00000351,0.00000041,0.00008396,0.00003551,0.
 00000603,-0.00006026,0.00002270,-0.00001448,0.00010718,0.00018808,0.00
 005334,-0.00002330,-0.00012570,-0.00004883,0.00000090,-0.00000496,-0.0
 0000189,-0.00000626,-0.00002795,0.00000018,0.00000064,0.00000030,-0.00
 000913,-0.00000127,-0.00000565,-0.00000202,0.00000235,0.00000193,0.000
 00164,-0.00000292,0.00000673,0.00000696,-0.00000125,0.00000112,-0.0000
 0674,0.00011977,-0.00014245,-0.00008323,-0.00070187,0.00019278,-0.0005
 3515,-0.00091930,-0.00088020,0.00000974,-0.00010379,-0.00004846,0.0001
 6811,0.00010342,0.00006063,0.00013859,0.00027454,-0.00034677,-0.000024
 80,0.00105282,-0.00040020,0.00057647,0.00028565,-0.00043670,-0.0000054
 3,-0.00003246,0.00010094,-0.00002885,0.00007798,-0.00005307,0.00003655
 ,-0.00000886,-0.00011340,-0.00018023,-0.00007970,0.00005538,-0.0000397
 2,-0.00000387,0.00003055,0.00000229,-0.00000013,0.00002280,0.00012353,
 -0.00001354,0.00002336,0.00002991,-0.00013320,0.00009062,-0.00001149,0
 .00002614,0.00000224,0.00001348,0.00007954,0.00000034,0.00007384,-0.00
 003834,0.00004936,0.00001648,0.00000565,0.00000690,0.00001062,0.000003
 13,-0.00001138,-0.00000325,-0.00004148,0.00002000,0.00001358,-0.002057
 33,-0.00340767,-0.00986620,-0.00998513,-0.06383648,-0.31429224,-0.0014
 8439,0.00082367,0.00071788,0.00056248,0.00050695,0.00025232,0.00032794
 ,-0.00015349,-0.00079402,-0.00104602,-0.00398137,-0.01165986,0.0136524
 7,0.07178002,0.33559377,0.,0.,0.,0.,0.,0.,0.00012977,0.00019589,-0.000
 06514,-0.00008066,-0.00024642,-0.00006622,0.,0.,0.,-0.00040818,-0.0000
 2218,0.00026181,0.00059253,0.00019292,-0.00016578,0.,0.,0.,0.00026547,
 -0.00008178,0.00024673,-0.00037253,0.00017536,-0.00019637,-0.00021147,
 -0.00057840,-0.00086932,0.00019826,0.00044018,0.00004369,-0.00003009,-
 0.00009254,-0.00010337,-0.00094084,0.00042979,-0.00036785,0.00007292,0
 .00009717,0.00072192,0.00002267,-0.00005919,-0.00035801,0.00085055,0.0
 0079710,-0.00129191,-0.00077158,0.00002412,0.00029148,0.00011286,0.000
 04829,-0.00012618,-0.00022121,0.00018357,0.00066168,-0.00002732,-0.000
 00299,-0.00000749,0.00061754,-0.00043126,-0.00008482,0.00023322,0.0000
 3187,-0.00020694,-0.00020043,-0.00099894,0.00048521,0.00000903,-0.0000
 4559,0.00006541,0.00201440,-0.00054277,0.00557123,-0.01066280,-0.00021
 941,-0.00140319,0.00575435,0.02340487,0.00992282,-0.00131565,-0.018380
 36,-0.01046618,-0.00014707,0.00043183,-0.00026651,-0.00547551,-0.00764
 897,-0.00127885,-0.00509182,-0.00606884,-0.00477799,0.00026949,0.00003
 666,0.00015909,0.00004179,0.00009010,-0.00013164,0.00081897,-0.0005466
 1,0.00061363,0.00104200,0.00002839,-0.00043876,0.00019684,-0.00023551,
 0.00068743,0.00079351,-0.00098787,0.00009994,0.00010962,0.00019336,0.0
 0006904,-0.00139133,0.00053508,-0.00059040,-0.00013169,-0.00051624,0.0
 0053513,0.00002957,0.00022613,-0.00002983,0.00026564,0.00016404,-0.000
 13731,-0.00002679,-0.00014431,0.00012096,0.00031456,0.00003593,-0.0001
 1526,-0.00011885,-0.00002030,0.00001639,0.00013379,0.00010679,-0.00005
 046,-0.00002528,-0.00009524,0.00005789,0.00001720,-0.00000841,0.000062
 09,-0.00001268,-0.00007849,-0.00010327,0.00005430,-0.00003860,0.000063
 41,-0.00168457,0.00012080,-0.00038550,0.00018525,-0.00008363,-0.001048
 27,0.00006811,-0.00014571,-0.00008090,0.00037346,0.00006634,-0.0001212
 5,0.00007440,0.00011355,-0.00015043,-0.00088147,0.00059440,-0.00010849
 ,-0.00005038,-0.00007058,0.00014152,-0.00051072,0.00048482,0.00157975,
 -0.00047735,-0.00083587,0.00006481,-0.00032568,-0.00051322,0.00035971,
 -0.00151033,-0.00011993,-0.00037723,0.00017883,-0.00005570,-0.00029605
 ,-0.00000102,-0.00006848,0.00080789,0.00109787,0.00079046,0.00015736,0
 .01603589,0.,0.,0.,0.,0.,0.,0.00017835,0.00027155,-0.00007968,-0.00010
 970,-0.00033068,-0.00009091,0.,0.,0.,-0.00033508,-0.00009117,0.0002772
 4,0.00057650,0.00026919,-0.00019276,0.,0.,0.,0.00019312,-0.00006252,0.
 00039027,-0.00047790,0.00024950,-0.00023447,-0.00039422,-0.00069947,-0
 .00125036,0.00028344,0.00059028,0.00007109,-0.00005216,-0.00012736,-0.
 00014421,-0.00161500,0.00097049,-0.00037231,0.00035124,-0.00001175,0.0
 0098296,-0.00001839,-0.00001432,-0.00033610,0.00096571,0.00120517,-0.0
 0178139,-0.00098116,-0.00025947,0.00043522,-0.00003193,0.00035225,-0.0
 0029416,-0.00029839,0.00024157,0.00087794,-0.00001178,-0.00001561,0.00
 000279,0.00098342,-0.00059813,-0.00048672,0.00025042,-0.00016745,-0.00
 021369,-0.00006469,-0.00142894,0.00075093,-0.00010573,-0.00010909,-0.0
 0002755,0.00355681,-0.00157778,0.00774327,-0.01710385,-0.00029889,-0.0
 0083308,0.02170880,0.01880305,0.01281859,-0.00862957,-0.02398560,-0.01
 588689,0.00108641,0.00017897,-0.00009448,-0.00395768,-0.00448025,-0.00
 169348,-0.00485093,-0.00588179,-0.00399293,-0.00024088,-0.00032088,-0.
 00016845,-0.00018308,-0.00003391,-0.00005176,-0.00023045,-0.00044804,0
 .00008634,0.00106049,0.00072710,0.00005777,-0.00031304,-0.00008286,0.0
 0065158,0.00007202,-0.00254270,0.00038820,0.00034078,-0.00001613,0.000
 81676,-0.00007226,-0.00012814,-0.00053247,-0.00014446,-0.00040183,0.00
 066045,0.00016642,0.00034963,-0.00002634,-0.00003138,0.00004824,-0.000
 19107,-0.00047004,-0.00029571,0.00005281,0.00046861,0.00071772,-0.0001
 1750,-0.00020748,-0.00017893,0.00011208,0.00002551,-0.00007133,-0.0000
 2626,-0.00001753,0.00007521,-0.00007893,-0.00002228,0.00003800,0.00013
 420,-0.00003730,-0.00004994,-0.00004208,0.00004335,-0.00004358,-0.0000
 0960,-0.00024649,0.00002986,-0.00025236,0.00080576,0.00044036,0.001262
 30,-0.00005515,-0.00043640,-0.00005100,-0.00013246,-0.00002065,0.00011
 161,0.00025668,-0.00042764,0.00066152,-0.00034835,-0.00154076,-0.00048
 325,-0.00034032,0.00051024,-0.00029842,0.00008844,0.00025564,0.0009990
 2,-0.00025213,-0.00012328,-0.00014379,-0.00046088,-0.00033322,0.000248
 65,-0.00027499,-0.00110810,-0.00027744,-0.00024994,0.00019924,0.000324
 88,-0.00007514,0.00006917,0.00013732,0.00076318,-0.00023153,0.00002828
 ,0.00935296,0.02095517,0.,0.,0.,0.,0.,0.,0.00005024,0.00008495,-0.0000
 0674,-0.00004952,-0.00012504,-0.00001412,0.,0.,0.,-0.00022824,0.000114
 85,0.00004719,0.00005096,-0.00005973,-0.00007143,0.,0.,0.,0.00006174,-
 0.00000558,0.00010031,-0.00012451,0.00005543,-0.00003960,-0.00015156,-
 0.00028149,-0.00021922,0.00014587,0.00014842,-0.00015616,-0.00005599,-
 0.00004522,0.00004494,-0.00053685,0.00017489,0.00003249,0.00016989,-0.
 00006451,0.00024666,-0.00004172,0.00000047,0.00000740,-0.00014868,-0.0
 0017620,-0.00007537,-0.00012547,0.00032832,-0.00007295,0.00008248,-0.0
 0019857,0.00004189,-0.00003839,0.00014253,0.00021377,0.00000961,0.0000
 2712,0.00002330,0.00020969,-0.00016011,-0.00038518,0.00004650,-0.00005
 391,-0.00008333,0.00020809,-0.00004461,-0.00010211,0.00006402,0.000034
 01,0.00005408,0.00119182,0.00018276,0.00131001,-0.00586723,-0.00013796
 ,-0.00230186,0.00471959,0.00688396,-0.00701965,-0.00191503,-0.00817171
 ,-0.00096367,-0.00032344,0.00029721,0.00011679,-0.00385031,-0.00624944
 ,-0.00075537,0.00002564,0.00066715,0.00138108,0.00014952,0.00014816,0.
 00023801,-0.00019490,-0.00032100,0.00005999,0.00064821,-0.00029741,-0.
 00013825,0.00016952,0.00062261,0.00035603,0.00073360,0.00039073,-0.000
 48868,0.00009638,0.00105291,-0.00089491,-0.00004698,0.00009676,-0.0001
 6875,0.00004526,0.00082934,-0.00185415,0.00003706,0.00018613,-0.000064
 22,0.00004997,0.00023089,0.00004121,0.00007310,-0.00005534,-0.00014267
 ,0.00017103,0.00002571,0.00007672,-0.00052132,0.00025137,0.00039110,0.
 00014645,0.00003583,-0.00005430,0.00006542,-0.00006315,-0.00004500,0.0
 0006560,0.00018182,-0.00016839,0.00001641,0.00005515,-0.00005222,-0.00
 007816,0.00005775,0.00009509,-0.00001801,-0.00000755,0.00005401,-0.000
 04190,0.00019116,0.00023646,-0.00102467,-0.00033940,-0.00132021,0.0000
 6986,0.00002680,0.00014318,0.00015643,0.00014015,-0.00019954,-0.000163
 75,0.00045991,-0.00042220,0.00025514,0.00090205,-0.00096894,-0.0000106
 8,0.00026847,0.00000436,0.00070859,-0.00035174,-0.00463997,-0.00058807
 ,0.00034393,-0.00098083,0.00077071,0.00057809,-0.00051834,0.00151223,0
 .00057270,-0.00219031,-0.00013866,0.00000515,0.00008158,0.00035918,0.0
 0011548,0.00010200,0.00007766,0.00001336,-0.00014695,0.00323627,0.0006
 2458,0.02239927\\0.,0.,0.,0.,0.,0.,-0.00000002,-0.00000001,0.,-0.00000
 004,0.,0.,0.,0.,0.,0.00000004,-0.00000003,-0.00000001,-0.00000002,0.,0
 .,0.,0.,0.,-0.00000003,0.00000002,0.00000003,0.,0.,0.,-0.00000012,0.00
 000003,-0.00000004,0.00000002,0.00000002,-0.00000002,-0.00000003,0.000
 00004,0.,0.00000001,0.00000012,0.00000010,0.00000004,-0.00000003,0.,-0
 .00000001,-0.00000002,0.,0.00000005,-0.00000004,0.00000008,0.00000002,
 0.00000001,-0.00000003,0.00000002,0.,0.00000004,0.,0.,0.00000002,0.000
 00002,0.,-0.00000001,0.00000005,0.00000003,-0.00000002,0.,0.00000001,0
 .,-0.00000004,0.,0.00000002,0.00000002,-0.00000001,0.,0.00000010,0.,-0
 .00000017,0.00000010,0.,-0.00000007,0.,0.00000016,-0.00000003,-0.00000
 005,-0.00000019,0.00000013,-0.00000007,-0.00000001,0.00000004,0.,-0.00
 000002,0.00000004,-0.00000001,-0.00000002,-0.00000002,0.00000002,0.,-0
 .00000002,0.00000004,0.,-0.00000004,-0.00000001,0.00000001,0.,-0.00000
 003,0.,0.00000003,0.,0.,0.,0.00000004,-0.00000008,0.00000003,-0.000000
 01,0.00000005,-0.00000002,0.,0.00000004,-0.00000002,-0.00000003,0.0000
 0004,-0.00000002,0.,0.,-0.00000004,0.,0.,0.00000002,0.,-0.00000005,0.0
 0000003,-0.00000005,0.00000002,0.,-0.00000003,0.,0.,0.00000004,0.,0.00
 000002,0.,-0.00000002,0.,0.00000001,0.,-0.00000001,0.,-0.00000002,0.,0
 .00000002,0.,0.,0.00000001,-0.00000003,0.00000005,0.,0.00000004,0.,0.,
 -0.00000002,-0.00000003,0.,0.00000005,-0.00000002,-0.00000002,0.000000
 01,0.,0.,-0.00000004,0.,0.00000002,-0.00000002,-0.00000001,0.00000004,
 0.,-0.00000005,-0.00000003,0.00000003,0.00000002,0.,0.,0.00000005,0.,0
 .,0.00000001,0.,-0.00000002,-0.00000001,0.,0.,0.,0.,-0.00000001,-0.000
 00002,-0.00000004,-0.00000003,0.\\\@


 A true friend is someone who is there for
 you when he'd rather be anywhere else.
                               -- Len Wein
 Job cpu time:       3 days 11 hours 24 minutes 23.0 seconds.
 Elapsed time:       0 days  1 hours 19 minutes 40.8 seconds.
 File lengths (MBytes):  RWF=   7377 Int=      0 D2E=      0 Chk=     59 Scr=      1
 Normal termination of Gaussian 16 at Sat Oct 19 01:53:47 2019.
