 Entering Gaussian System, Link 0=g16
 Input=3_test_opt_freq_from_IRC_re.com
 Output=3_test_opt_freq_from_IRC_re.log
 Initial command:
 /opt/ohpc/pub/apps/gaussian/avx2/g16/l1.exe "/scratch/g16-tmp/Gau-716697.inp" -scrdir="/scratch/g16-tmp/"
 Entering Link 1 = /opt/ohpc/pub/apps/gaussian/avx2/g16/l1.exe PID=    716698.
  
 Copyright (c) 1988-2017, Gaussian, Inc.  All Rights Reserved.
  
 This is part of the Gaussian(R) 16 program.  It is based on
 the Gaussian(R) 09 system (copyright 2009, Gaussian, Inc.),
 the Gaussian(R) 03 system (copyright 2003, Gaussian, Inc.),
 the Gaussian(R) 98 system (copyright 1998, Gaussian, Inc.),
 the Gaussian(R) 94 system (copyright 1995, Gaussian, Inc.),
 the Gaussian 92(TM) system (copyright 1992, Gaussian, Inc.),
 the Gaussian 90(TM) system (copyright 1990, Gaussian, Inc.),
 the Gaussian 88(TM) system (copyright 1988, Gaussian, Inc.),
 the Gaussian 86(TM) system (copyright 1986, Carnegie Mellon
 University), and the Gaussian 82(TM) system (copyright 1983,
 Carnegie Mellon University). Gaussian is a federally registered
 trademark of Gaussian, Inc.
  
 This software contains proprietary and confidential information,
 including trade secrets, belonging to Gaussian, Inc.
  
 This software is provided under written license and may be
 used, copied, transmitted, or stored only in accord with that
 written license.
  
 The following legend is applicable only to US Government
 contracts under FAR:
  
                    RESTRICTED RIGHTS LEGEND
  
 Use, reproduction and disclosure by the US Government is
 subject to restrictions as set forth in subparagraphs (a)
 and (c) of the Commercial Computer Software - Restricted
 Rights clause in FAR 52.227-19.
  
 Gaussian, Inc.
 340 Quinnipiac St., Bldg. 40, Wallingford CT 06492
  
  
 ---------------------------------------------------------------
 Warning -- This program may not be used in any manner that
 competes with the business of Gaussian, Inc. or will provide
 assistance to any competitor of Gaussian, Inc.  The licensee
 of this program is prohibited from giving any competitor of
 Gaussian, Inc. access to this program.  By using this program,
 the user acknowledges that Gaussian, Inc. is engaged in the
 business of creating and licensing software in the field of
 computational chemistry and represents and warrants to the
 licensee that it is not a competitor of Gaussian, Inc. and that
 it will not use this program in any manner prohibited above.
 ---------------------------------------------------------------
  

 Cite this work as:
 Gaussian 16, Revision B.01,
 M. J. Frisch, G. W. Trucks, H. B. Schlegel, G. E. Scuseria, 
 M. A. Robb, J. R. Cheeseman, G. Scalmani, V. Barone, 
 G. A. Petersson, H. Nakatsuji, X. Li, M. Caricato, A. V. Marenich, 
 J. Bloino, B. G. Janesko, R. Gomperts, B. Mennucci, H. P. Hratchian, 
 J. V. Ortiz, A. F. Izmaylov, J. L. Sonnenberg, D. Williams-Young, 
 F. Ding, F. Lipparini, F. Egidi, J. Goings, B. Peng, A. Petrone, 
 T. Henderson, D. Ranasinghe, V. G. Zakrzewski, J. Gao, N. Rega, 
 G. Zheng, W. Liang, M. Hada, M. Ehara, K. Toyota, R. Fukuda, 
 J. Hasegawa, M. Ishida, T. Nakajima, Y. Honda, O. Kitao, H. Nakai, 
 T. Vreven, K. Throssell, J. A. Montgomery, Jr., J. E. Peralta, 
 F. Ogliaro, M. J. Bearpark, J. J. Heyd, E. N. Brothers, K. N. Kudin, 
 V. N. Staroverov, T. A. Keith, R. Kobayashi, J. Normand, 
 K. Raghavachari, A. P. Rendell, J. C. Burant, S. S. Iyengar, 
 J. Tomasi, M. Cossi, J. M. Millam, M. Klene, C. Adamo, R. Cammi, 
 J. W. Ochterski, R. L. Martin, K. Morokuma, O. Farkas, 
 J. B. Foresman, and D. J. Fox, Gaussian, Inc., Wallingford CT, 2016.
 
 ******************************************
 Gaussian 16:  ES64L-G16RevB.01 20-Dec-2017
                14-Mar-2023 
 ******************************************
 %nprocshared=64
 Will use up to   64 processors via shared memory.
 %mem=64GB
 %chk=3_test_opt_freq_from_IRC_re.chk
 ------------------------------------------------------------------
 # opt=(calcfc,tight) freq cam-b3lyp/gen nosymm pseudo=read scf=xqc
 ------------------------------------------------------------------
 1/7=10,10=4,18=20,19=15,26=3,38=1/1,3;
 2/9=110,12=2,15=1,17=6,18=5,40=1/2;
 3/5=7,11=2,16=1,17=8,25=1,30=1,71=2,74=-40,140=1/1,2,3;
 4//1;
 5/5=2,8=3,13=1,38=5/2,8;
 8/6=4,10=90,11=11/1;
 11/6=1,8=1,9=11,15=111,16=1,31=1/1,2,10;
 10/6=1,13=1,31=1/2;
 6/7=2,8=2,9=2,10=2,28=1/1;
 7/10=1,18=20,25=1,30=1/1,2,3,16;
 1/7=10,10=4,18=20,19=15,26=3/3(2);
 2/9=110,15=1/2;
 99//99;
 2/9=110,15=1/2;
 3/5=7,6=1,11=2,16=1,17=8,25=1,30=1,71=1,74=-40,82=7/1,2,3;
 4/5=5,16=3,69=1/1;
 5/5=2,8=3,13=1,38=5/2,8;
 7/30=1/1,2,3,16;
 1/7=10,18=20,19=15,26=3/3(-5);
 2/9=110,15=1/2;
 6/7=2,8=2,9=2,10=2,19=2,28=1/1;
 99/9=1/99;
 ---------------------------
 3_test_opt_freq_from_IRC_re
 ---------------------------
 Symbolic Z-matrix:
 Charge =  0 Multiplicity = 1
 C                    -0.83417   1.29219   0.47573 
 C                     0.33205   1.71195   1.37728 
 O                    -0.60536  -0.0166    0.15291 
 C                    -0.94204   2.19124  -0.76088 
 H                     0.38811   1.05518   2.24266 
 H                     1.27259   1.68343   0.82659 
 H                    -1.7592    1.83302  -1.39468 
 H                    -0.01373   2.1317   -1.3423 
 H                    -1.12724   3.23958  -0.51013 
 H                    -1.76355   1.43591   1.06791 
 Br                    0.21466   3.54613   2.12977 
 N                     0.07571  -2.845    -1.26477 
 C                    -1.37971  -2.51054  -0.9399 
 C                    -2.22227  -1.94804  -2.06938 
 H                    -1.33847  -1.72555  -0.17151 
 H                    -1.79975  -3.44477  -0.55585 
 H                    -3.25758  -1.9495   -1.71853 
 H                    -1.95327  -0.90692  -2.24725 
 H                    -2.19778  -2.51494  -3.0033 
 C                     0.12192  -3.89893  -2.33781 
 C                     1.49898  -4.47409  -2.63324 
 H                    -0.29622  -3.45123  -3.23664 
 H                    -0.56054  -4.69078  -2.01877 
 H                     1.41508  -5.12419  -3.50745 
 H                     2.23073  -3.69935  -2.86899 
 H                     1.8871   -5.0798   -1.81327 
 C                     0.68429  -3.42961   0.00266 
 C                     0.45099  -2.62438   1.27506 
 H                     1.74969  -3.52804  -0.20172 
 H                     0.27041  -4.43821   0.09227 
 H                     1.26512  -2.83866   1.97171 
 H                     0.38612  -1.54264   1.0887 
 H                    -0.48438  -2.91399   1.75782 
 C                     0.87524  -1.59225  -1.64501 
 C                     0.79787  -1.15886  -3.09979 
 H                     1.91207  -1.81983  -1.38981 
 H                     0.48341  -0.79053  -0.97676 
 H                     1.3639   -0.22645  -3.1733 
 H                     1.2453   -1.86472  -3.80512 
 H                    -0.21614  -0.93468  -3.4273 
 
 Add virtual bond connecting atoms H15        and O3         Dist= 3.57D+00.
 Add virtual bond connecting atoms H37        and O3         Dist= 3.31D+00.

 GradGradGradGradGradGradGradGradGradGradGradGradGradGradGradGradGradGrad
 Berny optimization.
 Initialization pass.
                           ----------------------------
                           !    Initial Parameters    !
                           ! (Angstroms and Degrees)  !
 --------------------------                            --------------------------
 ! Name  Definition              Value          Derivative Info.                !
 --------------------------------------------------------------------------------
 ! R1    R(1,2)                  1.5327         calculate D2E/DX2 analytically  !
 ! R2    R(1,3)                  1.3673         calculate D2E/DX2 analytically  !
 ! R3    R(1,4)                  1.5327         calculate D2E/DX2 analytically  !
 ! R4    R(1,10)                 1.1113         calculate D2E/DX2 analytically  !
 ! R5    R(2,5)                  1.0878         calculate D2E/DX2 analytically  !
 ! R6    R(2,6)                  1.0903         calculate D2E/DX2 analytically  !
 ! R7    R(2,11)                 1.986          calculate D2E/DX2 analytically  !
 ! R8    R(3,15)                 1.8876         calculate D2E/DX2 analytically  !
 ! R9    R(3,37)                 1.7494         calculate D2E/DX2 analytically  !
 ! R10   R(4,7)                  1.0944         calculate D2E/DX2 analytically  !
 ! R11   R(4,8)                  1.097          calculate D2E/DX2 analytically  !
 ! R12   R(4,9)                  1.0937         calculate D2E/DX2 analytically  !
 ! R13   R(12,13)                1.5283         calculate D2E/DX2 analytically  !
 ! R14   R(12,20)                1.5048         calculate D2E/DX2 analytically  !
 ! R15   R(12,27)                1.5227         calculate D2E/DX2 analytically  !
 ! R16   R(12,34)                1.534          calculate D2E/DX2 analytically  !
 ! R17   R(13,14)                1.5173         calculate D2E/DX2 analytically  !
 ! R18   R(13,15)                1.0992         calculate D2E/DX2 analytically  !
 ! R19   R(13,16)                1.0939         calculate D2E/DX2 analytically  !
 ! R20   R(14,17)                1.0931         calculate D2E/DX2 analytically  !
 ! R21   R(14,18)                1.0899         calculate D2E/DX2 analytically  !
 ! R22   R(14,19)                1.0928         calculate D2E/DX2 analytically  !
 ! R23   R(20,21)                1.5213         calculate D2E/DX2 analytically  !
 ! R24   R(20,22)                1.0877         calculate D2E/DX2 analytically  !
 ! R25   R(20,23)                1.093          calculate D2E/DX2 analytically  !
 ! R26   R(21,24)                1.0927         calculate D2E/DX2 analytically  !
 ! R27   R(21,25)                1.0914         calculate D2E/DX2 analytically  !
 ! R28   R(21,26)                1.0908         calculate D2E/DX2 analytically  !
 ! R29   R(27,28)                1.5238         calculate D2E/DX2 analytically  !
 ! R30   R(27,29)                1.0893         calculate D2E/DX2 analytically  !
 ! R31   R(27,30)                1.0939         calculate D2E/DX2 analytically  !
 ! R32   R(28,31)                1.0927         calculate D2E/DX2 analytically  !
 ! R33   R(28,32)                1.0996         calculate D2E/DX2 analytically  !
 ! R34   R(28,33)                1.0917         calculate D2E/DX2 analytically  !
 ! R35   R(34,35)                1.5199         calculate D2E/DX2 analytically  !
 ! R36   R(34,36)                1.0918         calculate D2E/DX2 analytically  !
 ! R37   R(34,37)                1.1148         calculate D2E/DX2 analytically  !
 ! R38   R(35,38)                1.0932         calculate D2E/DX2 analytically  !
 ! R39   R(35,39)                1.0936         calculate D2E/DX2 analytically  !
 ! R40   R(35,40)                1.0889         calculate D2E/DX2 analytically  !
 ! A1    A(2,1,3)              105.8846         calculate D2E/DX2 analytically  !
 ! A2    A(2,1,4)              111.561          calculate D2E/DX2 analytically  !
 ! A3    A(2,1,10)             106.7066         calculate D2E/DX2 analytically  !
 ! A4    A(3,1,4)              112.5055         calculate D2E/DX2 analytically  !
 ! A5    A(3,1,10)             112.926          calculate D2E/DX2 analytically  !
 ! A6    A(4,1,10)             107.1698         calculate D2E/DX2 analytically  !
 ! A7    A(1,2,5)              109.9862         calculate D2E/DX2 analytically  !
 ! A8    A(1,2,6)              110.6181         calculate D2E/DX2 analytically  !
 ! A9    A(1,2,11)             115.5208         calculate D2E/DX2 analytically  !
 ! A10   A(5,2,6)              109.9722         calculate D2E/DX2 analytically  !
 ! A11   A(5,2,11)             105.0235         calculate D2E/DX2 analytically  !
 ! A12   A(6,2,11)             105.4581         calculate D2E/DX2 analytically  !
 ! A13   A(1,3,15)             147.3709         calculate D2E/DX2 analytically  !
 ! A14   A(1,3,37)             132.8486         calculate D2E/DX2 analytically  !
 ! A15   A(15,3,37)             74.3488         calculate D2E/DX2 analytically  !
 ! A16   A(1,4,7)              109.1351         calculate D2E/DX2 analytically  !
 ! A17   A(1,4,8)              109.6478         calculate D2E/DX2 analytically  !
 ! A18   A(1,4,9)              112.904          calculate D2E/DX2 analytically  !
 ! A19   A(7,4,8)              107.8873         calculate D2E/DX2 analytically  !
 ! A20   A(7,4,9)              108.6674         calculate D2E/DX2 analytically  !
 ! A21   A(8,4,9)              108.4721         calculate D2E/DX2 analytically  !
 ! A22   A(13,12,20)           109.518          calculate D2E/DX2 analytically  !
 ! A23   A(13,12,27)           106.7207         calculate D2E/DX2 analytically  !
 ! A24   A(13,12,34)           111.7354         calculate D2E/DX2 analytically  !
 ! A25   A(20,12,27)           108.2031         calculate D2E/DX2 analytically  !
 ! A26   A(20,12,34)           112.2847         calculate D2E/DX2 analytically  !
 ! A27   A(27,12,34)           108.153          calculate D2E/DX2 analytically  !
 ! A28   A(12,13,14)           116.8548         calculate D2E/DX2 analytically  !
 ! A29   A(12,13,15)           105.6133         calculate D2E/DX2 analytically  !
 ! A30   A(12,13,16)           104.6783         calculate D2E/DX2 analytically  !
 ! A31   A(14,13,15)           106.0485         calculate D2E/DX2 analytically  !
 ! A32   A(14,13,16)           111.3911         calculate D2E/DX2 analytically  !
 ! A33   A(15,13,16)           112.2635         calculate D2E/DX2 analytically  !
 ! A34   A(13,14,17)           106.6494         calculate D2E/DX2 analytically  !
 ! A35   A(13,14,18)           109.7896         calculate D2E/DX2 analytically  !
 ! A36   A(13,14,19)           115.5588         calculate D2E/DX2 analytically  !
 ! A37   A(17,14,18)           106.7023         calculate D2E/DX2 analytically  !
 ! A38   A(17,14,19)           107.1473         calculate D2E/DX2 analytically  !
 ! A39   A(18,14,19)           110.5202         calculate D2E/DX2 analytically  !
 ! A40   A(3,15,13)            141.3729         calculate D2E/DX2 analytically  !
 ! A41   A(12,20,21)           115.5353         calculate D2E/DX2 analytically  !
 ! A42   A(12,20,22)           106.8088         calculate D2E/DX2 analytically  !
 ! A43   A(12,20,23)           106.2663         calculate D2E/DX2 analytically  !
 ! A44   A(21,20,22)           110.0664         calculate D2E/DX2 analytically  !
 ! A45   A(21,20,23)           110.3637         calculate D2E/DX2 analytically  !
 ! A46   A(22,20,23)           107.4201         calculate D2E/DX2 analytically  !
 ! A47   A(20,21,24)           108.1071         calculate D2E/DX2 analytically  !
 ! A48   A(20,21,25)           112.3612         calculate D2E/DX2 analytically  !
 ! A49   A(20,21,26)           112.7075         calculate D2E/DX2 analytically  !
 ! A50   A(24,21,25)           107.5175         calculate D2E/DX2 analytically  !
 ! A51   A(24,21,26)           107.3599         calculate D2E/DX2 analytically  !
 ! A52   A(25,21,26)           108.5408         calculate D2E/DX2 analytically  !
 ! A53   A(12,27,28)           115.5297         calculate D2E/DX2 analytically  !
 ! A54   A(12,27,29)           105.6307         calculate D2E/DX2 analytically  !
 ! A55   A(12,27,30)           105.7218         calculate D2E/DX2 analytically  !
 ! A56   A(28,27,29)           110.7433         calculate D2E/DX2 analytically  !
 ! A57   A(28,27,30)           111.1561         calculate D2E/DX2 analytically  !
 ! A58   A(29,27,30)           107.5848         calculate D2E/DX2 analytically  !
 ! A59   A(27,28,31)           108.3401         calculate D2E/DX2 analytically  !
 ! A60   A(27,28,32)           112.7919         calculate D2E/DX2 analytically  !
 ! A61   A(27,28,33)           111.1159         calculate D2E/DX2 analytically  !
 ! A62   A(31,28,32)           110.1766         calculate D2E/DX2 analytically  !
 ! A63   A(31,28,33)           107.7228         calculate D2E/DX2 analytically  !
 ! A64   A(32,28,33)           106.5812         calculate D2E/DX2 analytically  !
 ! A65   A(12,34,35)           116.3325         calculate D2E/DX2 analytically  !
 ! A66   A(12,34,36)           105.4738         calculate D2E/DX2 analytically  !
 ! A67   A(12,34,37)           104.8044         calculate D2E/DX2 analytically  !
 ! A68   A(35,34,36)           109.3608         calculate D2E/DX2 analytically  !
 ! A69   A(35,34,37)           110.5349         calculate D2E/DX2 analytically  !
 ! A70   A(36,34,37)           110.0948         calculate D2E/DX2 analytically  !
 ! A71   A(34,35,38)           106.3317         calculate D2E/DX2 analytically  !
 ! A72   A(34,35,39)           114.3592         calculate D2E/DX2 analytically  !
 ! A73   A(34,35,40)           113.2024         calculate D2E/DX2 analytically  !
 ! A74   A(38,35,39)           107.1755         calculate D2E/DX2 analytically  !
 ! A75   A(38,35,40)           106.638          calculate D2E/DX2 analytically  !
 ! A76   A(39,35,40)           108.656          calculate D2E/DX2 analytically  !
 ! A77   A(3,37,34)            157.5092         calculate D2E/DX2 analytically  !
 ! D1    D(3,1,2,5)            -57.0024         calculate D2E/DX2 analytically  !
 ! D2    D(3,1,2,6)             64.6768         calculate D2E/DX2 analytically  !
 ! D3    D(3,1,2,11)          -175.6412         calculate D2E/DX2 analytically  !
 ! D4    D(4,1,2,5)           -179.7102         calculate D2E/DX2 analytically  !
 ! D5    D(4,1,2,6)            -58.031          calculate D2E/DX2 analytically  !
 ! D6    D(4,1,2,11)            61.651          calculate D2E/DX2 analytically  !
 ! D7    D(10,1,2,5)            63.546          calculate D2E/DX2 analytically  !
 ! D8    D(10,1,2,6)          -174.7748         calculate D2E/DX2 analytically  !
 ! D9    D(10,1,2,11)          -55.0928         calculate D2E/DX2 analytically  !
 ! D10   D(2,1,3,15)           142.9775         calculate D2E/DX2 analytically  !
 ! D11   D(2,1,3,37)           -76.9944         calculate D2E/DX2 analytically  !
 ! D12   D(4,1,3,15)           -94.9169         calculate D2E/DX2 analytically  !
 ! D13   D(4,1,3,37)            45.1112         calculate D2E/DX2 analytically  !
 ! D14   D(10,1,3,15)           26.5621         calculate D2E/DX2 analytically  !
 ! D15   D(10,1,3,37)          166.5902         calculate D2E/DX2 analytically  !
 ! D16   D(2,1,4,7)            177.755          calculate D2E/DX2 analytically  !
 ! D17   D(2,1,4,8)             59.7802         calculate D2E/DX2 analytically  !
 ! D18   D(2,1,4,9)            -61.2887         calculate D2E/DX2 analytically  !
 ! D19   D(3,1,4,7)             58.9212         calculate D2E/DX2 analytically  !
 ! D20   D(3,1,4,8)            -59.0536         calculate D2E/DX2 analytically  !
 ! D21   D(3,1,4,9)            179.8775         calculate D2E/DX2 analytically  !
 ! D22   D(10,1,4,7)           -65.7829         calculate D2E/DX2 analytically  !
 ! D23   D(10,1,4,8)           176.2423         calculate D2E/DX2 analytically  !
 ! D24   D(10,1,4,9)            55.1735         calculate D2E/DX2 analytically  !
 ! D25   D(1,3,15,13)          123.2175         calculate D2E/DX2 analytically  !
 ! D26   D(37,3,15,13)         -27.4996         calculate D2E/DX2 analytically  !
 ! D27   D(1,3,37,34)         -158.1851         calculate D2E/DX2 analytically  !
 ! D28   D(15,3,37,34)           0.7316         calculate D2E/DX2 analytically  !
 ! D29   D(20,12,13,14)        -61.2028         calculate D2E/DX2 analytically  !
 ! D30   D(20,12,13,15)       -178.7992         calculate D2E/DX2 analytically  !
 ! D31   D(20,12,13,16)         62.5249         calculate D2E/DX2 analytically  !
 ! D32   D(27,12,13,14)       -178.1102         calculate D2E/DX2 analytically  !
 ! D33   D(27,12,13,15)         64.2934         calculate D2E/DX2 analytically  !
 ! D34   D(27,12,13,16)        -54.3825         calculate D2E/DX2 analytically  !
 ! D35   D(34,12,13,14)         63.8574         calculate D2E/DX2 analytically  !
 ! D36   D(34,12,13,15)        -53.739          calculate D2E/DX2 analytically  !
 ! D37   D(34,12,13,16)       -172.4149         calculate D2E/DX2 analytically  !
 ! D38   D(13,12,20,21)       -171.918          calculate D2E/DX2 analytically  !
 ! D39   D(13,12,20,22)         65.2935         calculate D2E/DX2 analytically  !
 ! D40   D(13,12,20,23)        -49.1579         calculate D2E/DX2 analytically  !
 ! D41   D(27,12,20,21)        -55.9484         calculate D2E/DX2 analytically  !
 ! D42   D(27,12,20,22)       -178.737          calculate D2E/DX2 analytically  !
 ! D43   D(27,12,20,23)         66.8117         calculate D2E/DX2 analytically  !
 ! D44   D(34,12,20,21)         63.3401         calculate D2E/DX2 analytically  !
 ! D45   D(34,12,20,22)        -59.4485         calculate D2E/DX2 analytically  !
 ! D46   D(34,12,20,23)       -173.8998         calculate D2E/DX2 analytically  !
 ! D47   D(13,12,27,28)        -49.3511         calculate D2E/DX2 analytically  !
 ! D48   D(13,12,27,29)       -172.1169         calculate D2E/DX2 analytically  !
 ! D49   D(13,12,27,30)         74.0127         calculate D2E/DX2 analytically  !
 ! D50   D(20,12,27,28)       -167.1272         calculate D2E/DX2 analytically  !
 ! D51   D(20,12,27,29)         70.1069         calculate D2E/DX2 analytically  !
 ! D52   D(20,12,27,30)        -43.7634         calculate D2E/DX2 analytically  !
 ! D53   D(34,12,27,28)         71.0081         calculate D2E/DX2 analytically  !
 ! D54   D(34,12,27,29)        -51.7577         calculate D2E/DX2 analytically  !
 ! D55   D(34,12,27,30)       -165.6281         calculate D2E/DX2 analytically  !
 ! D56   D(13,12,34,35)        -85.0605         calculate D2E/DX2 analytically  !
 ! D57   D(13,12,34,36)        153.5519         calculate D2E/DX2 analytically  !
 ! D58   D(13,12,34,37)         37.3266         calculate D2E/DX2 analytically  !
 ! D59   D(20,12,34,35)         38.4497         calculate D2E/DX2 analytically  !
 ! D60   D(20,12,34,36)        -82.9379         calculate D2E/DX2 analytically  !
 ! D61   D(20,12,34,37)        160.8368         calculate D2E/DX2 analytically  !
 ! D62   D(27,12,34,35)        157.7675         calculate D2E/DX2 analytically  !
 ! D63   D(27,12,34,36)         36.3799         calculate D2E/DX2 analytically  !
 ! D64   D(27,12,34,37)        -79.8454         calculate D2E/DX2 analytically  !
 ! D65   D(12,13,14,17)        169.5028         calculate D2E/DX2 analytically  !
 ! D66   D(12,13,14,18)        -75.2574         calculate D2E/DX2 analytically  !
 ! D67   D(12,13,14,19)         50.5475         calculate D2E/DX2 analytically  !
 ! D68   D(15,13,14,17)        -73.1381         calculate D2E/DX2 analytically  !
 ! D69   D(15,13,14,18)         42.1017         calculate D2E/DX2 analytically  !
 ! D70   D(15,13,14,19)        167.9066         calculate D2E/DX2 analytically  !
 ! D71   D(16,13,14,17)         49.2791         calculate D2E/DX2 analytically  !
 ! D72   D(16,13,14,18)        164.5189         calculate D2E/DX2 analytically  !
 ! D73   D(16,13,14,19)        -69.6762         calculate D2E/DX2 analytically  !
 ! D74   D(12,13,15,3)          54.9283         calculate D2E/DX2 analytically  !
 ! D75   D(14,13,15,3)         -69.7137         calculate D2E/DX2 analytically  !
 ! D76   D(16,13,15,3)         168.4253         calculate D2E/DX2 analytically  !
 ! D77   D(12,20,21,24)       -172.8199         calculate D2E/DX2 analytically  !
 ! D78   D(12,20,21,25)        -54.3339         calculate D2E/DX2 analytically  !
 ! D79   D(12,20,21,26)         68.6821         calculate D2E/DX2 analytically  !
 ! D80   D(22,20,21,24)        -51.7755         calculate D2E/DX2 analytically  !
 ! D81   D(22,20,21,25)         66.7106         calculate D2E/DX2 analytically  !
 ! D82   D(22,20,21,26)       -170.2735         calculate D2E/DX2 analytically  !
 ! D83   D(23,20,21,24)         66.62           calculate D2E/DX2 analytically  !
 ! D84   D(23,20,21,25)       -174.8939         calculate D2E/DX2 analytically  !
 ! D85   D(23,20,21,26)        -51.878          calculate D2E/DX2 analytically  !
 ! D86   D(12,27,28,31)       -153.7393         calculate D2E/DX2 analytically  !
 ! D87   D(12,27,28,32)        -31.5011         calculate D2E/DX2 analytically  !
 ! D88   D(12,27,28,33)         88.1092         calculate D2E/DX2 analytically  !
 ! D89   D(29,27,28,31)        -33.7277         calculate D2E/DX2 analytically  !
 ! D90   D(29,27,28,32)         88.5105         calculate D2E/DX2 analytically  !
 ! D91   D(29,27,28,33)       -151.8792         calculate D2E/DX2 analytically  !
 ! D92   D(30,27,28,31)         85.8084         calculate D2E/DX2 analytically  !
 ! D93   D(30,27,28,32)       -151.9534         calculate D2E/DX2 analytically  !
 ! D94   D(30,27,28,33)        -32.3431         calculate D2E/DX2 analytically  !
 ! D95   D(12,34,35,38)        176.3109         calculate D2E/DX2 analytically  !
 ! D96   D(12,34,35,39)        -65.6252         calculate D2E/DX2 analytically  !
 ! D97   D(12,34,35,40)         59.5531         calculate D2E/DX2 analytically  !
 ! D98   D(36,34,35,38)        -64.3851         calculate D2E/DX2 analytically  !
 ! D99   D(36,34,35,39)         53.6788         calculate D2E/DX2 analytically  !
 ! D100  D(36,34,35,40)        178.8571         calculate D2E/DX2 analytically  !
 ! D101  D(37,34,35,38)         56.9808         calculate D2E/DX2 analytically  !
 ! D102  D(37,34,35,39)        175.0447         calculate D2E/DX2 analytically  !
 ! D103  D(37,34,35,40)        -59.7771         calculate D2E/DX2 analytically  !
 ! D104  D(12,34,37,3)         -13.7466         calculate D2E/DX2 analytically  !
 ! D105  D(35,34,37,3)         112.3352         calculate D2E/DX2 analytically  !
 ! D106  D(36,34,37,3)        -126.7345         calculate D2E/DX2 analytically  !
 --------------------------------------------------------------------------------
 Trust Radius=3.00D-01 FncErr=1.00D-07 GrdErr=1.00D-06 EigMax=2.50D+02 EigMin=1.00D-04
 Number of steps in this run=    233 maximum allowed number of steps=    240.
 GradGradGradGradGradGradGradGradGradGradGradGradGradGradGradGradGradGrad

                          Input orientation:                          
 ---------------------------------------------------------------------
 Center     Atomic      Atomic             Coordinates (Angstroms)
 Number     Number       Type             X           Y           Z
 ---------------------------------------------------------------------
      1          6           0       -0.834172    1.292188    0.475727
      2          6           0        0.332052    1.711952    1.377278
      3          8           0       -0.605358   -0.016598    0.152910
      4          6           0       -0.942040    2.191241   -0.760882
      5          1           0        0.388106    1.055181    2.242660
      6          1           0        1.272588    1.683429    0.826587
      7          1           0       -1.759202    1.833024   -1.394682
      8          1           0       -0.013725    2.131700   -1.342304
      9          1           0       -1.127240    3.239580   -0.510125
     10          1           0       -1.763548    1.435907    1.067906
     11         35           0        0.214661    3.546131    2.129773
     12          7           0        0.075712   -2.844999   -1.264766
     13          6           0       -1.379710   -2.510542   -0.939895
     14          6           0       -2.222268   -1.948042   -2.069384
     15          1           0       -1.338469   -1.725549   -0.171509
     16          1           0       -1.799745   -3.444771   -0.555847
     17          1           0       -3.257577   -1.949500   -1.718533
     18          1           0       -1.953268   -0.906915   -2.247254
     19          1           0       -2.197779   -2.514939   -3.003298
     20          6           0        0.121915   -3.898927   -2.337815
     21          6           0        1.498983   -4.474093   -2.633239
     22          1           0       -0.296223   -3.451232   -3.236636
     23          1           0       -0.560543   -4.690779   -2.018770
     24          1           0        1.415075   -5.124189   -3.507452
     25          1           0        2.230731   -3.699348   -2.868986
     26          1           0        1.887095   -5.079802   -1.813267
     27          6           0        0.684290   -3.429608    0.002662
     28          6           0        0.450985   -2.624379    1.275059
     29          1           0        1.749692   -3.528038   -0.201715
     30          1           0        0.270406   -4.438210    0.092273
     31          1           0        1.265124   -2.838664    1.971705
     32          1           0        0.386120   -1.542642    1.088704
     33          1           0       -0.484377   -2.913986    1.757816
     34          6           0        0.875239   -1.592247   -1.645013
     35          6           0        0.797873   -1.158856   -3.099786
     36          1           0        1.912065   -1.819829   -1.389807
     37          1           0        0.483412   -0.790526   -0.976764
     38          1           0        1.363898   -0.226449   -3.173298
     39          1           0        1.245301   -1.864721   -3.805123
     40          1           0       -0.216137   -0.934677   -3.427300
 ---------------------------------------------------------------------
                    Distance matrix (angstroms):
                    1          2          3          4          5
     1  C    0.000000
     2  C    1.532669   0.000000
     3  O    1.367292   2.316398   0.000000
     4  C    1.532688   2.534710   2.413073   0.000000
     5  H    2.161524   1.087831   2.550046   3.475800   0.000000
     6  H    2.171315   1.090267   2.621186   2.771734   1.783891
     7  H    2.155601   3.474444   2.673481   1.094429   4.294907
     8  H    2.164059   2.773423   2.683445   1.096980   3.764615
     9  H    2.202301   2.832926   3.363729   1.093706   3.826970
    10  H    1.111337   2.136224   2.070843   2.142398   2.480849
    11  Br   2.985997   1.986012   4.156135   3.395522   2.499532
    12  N    4.579686   5.273700   3.236281   5.162696   5.254620
    13  C    4.094185   5.111641   2.830830   4.725501   5.095901
    14  C    4.347815   5.639112   3.359087   4.526016   5.867463
    15  H    3.127294   4.123808   1.887647   3.980673   4.067153
    16  H    4.943203   5.905364   3.698820   5.704588   5.733053
    17  H    4.603934   5.989634   3.777919   4.839891   6.165238
    18  H    3.674650   5.021791   2.893149   3.581962   5.430578
    19  H    5.334534   6.592124   4.328875   5.362223   6.852199
    20  C    5.981454   6.732610   4.669595   6.380350   6.752392
    21  C    6.954084   7.464123   5.662167   7.341048   7.455287
    22  H    6.047401   6.952798   4.835421   6.195477   7.127324
    23  H    6.487934   7.302385   5.154238   7.006427   7.216355
    24  H    7.880020   8.471502   6.600597   8.161811   8.503121
    25  H    6.745085   7.135678   5.544177   7.014957   7.220093
    26  H    7.297057   7.663267   5.976137   7.872711   7.505700
    27  C    4.982457   5.333787   3.651630   5.901008   5.021817
    28  C    4.198816   4.339166   3.029125   5.410709   3.805176
    29  H    5.510886   5.653355   4.242904   6.345726   5.369803
    30  H    5.848469   6.283274   4.507914   6.793197   5.900454
    31  H    4.869182   4.683169   3.843277   6.135026   4.000576
    32  H    3.146604   3.267810   2.046350   4.373427   2.842587
    33  H    4.411123   4.712820   3.314395   5.711098   4.092748
    34  C    3.967315   4.510768   2.812004   4.289402   4.728655
    35  C    4.632006   5.338785   3.722075   4.440824   5.797551
    36  H    4.550460   4.756751   3.459630   4.962877   4.876777
    37  H    2.860674   3.439014   1.749442   3.312016   3.712197
    38  H    4.522516   5.052707   3.871132   4.120962   5.650429
    39  H    5.711038   6.362695   4.744104   5.522924   6.770250
    40  H    4.535914   5.512633   3.716486   4.172300   6.039296
                    6          7          8          9         10
     6  H    0.000000
     7  H    3.761405   0.000000
     8  H    2.561179   1.771621   0.000000
     9  H    3.157147   1.777700   1.777593   0.000000
    10  H    3.055753   2.494406   3.058614   2.479578   0.000000
    11  Br   2.507421   4.387785   3.756074   2.977202   3.081220
    12  N    5.129613   5.026697   4.978106   6.248094   5.210604
    13  C    5.267308   4.383767   4.855745   5.771685   4.444441
    14  C    5.812766   3.868606   4.695807   5.526463   4.637254
    15  H    4.408508   3.786372   4.243121   4.981143   3.422228
    16  H    6.135861   5.344194   5.908080   6.718251   5.143822
    17  H    6.340205   4.081359   5.226884   5.738043   4.632207
    18  H    5.154079   2.876075   3.716711   4.570926   4.063877
    19  H    6.658661   4.656692   5.396318   6.362111   5.689679
    20  C    6.519217   6.106010   6.113747   7.473896   6.604117
    21  C    7.066592   7.206214   6.898645   8.420535   7.698746
    22  H    6.733178   5.784156   5.902324   7.272649   6.675796
    23  H    7.217129   6.662303   6.877706   8.092450   6.964989
    24  H    8.071422   7.933640   7.705664   9.241210   8.606533
    25  H    6.599211   6.978558   6.431910   8.061570   7.604224
    26  H    7.286134   7.826740   7.472662   8.944077   8.005174
    27  C    5.212302   5.968125   5.764053   6.929838   5.549765
    28  C    4.408329   5.646316   5.448562   6.329589   4.629578
    29  H    5.333331   6.517399   6.036822   7.360198   6.212531
    30  H    6.246443   6.757124   6.730710   7.827181   6.292383
    31  H    4.664834   6.504135   6.109225   6.987699   5.316170
    32  H    3.355900   4.707944   4.423852   5.264614   3.673317
    33  H    5.009026   5.839309   5.940640   6.589628   4.586265
    34  C    4.122711   4.328444   3.840530   5.352051   4.846942
    35  C    4.870354   4.289214   3.817747   5.455148   5.537448
    36  H    4.194538   5.178954   4.396078   5.967314   5.490929
    37  H    3.161539   3.476635   2.986665   4.365055   3.766498
    38  H    4.433402   4.142301   3.288047   5.031065   5.525591
    39  H    5.834625   5.339530   4.860247   6.522258   6.610123
    40  H    5.212134   3.764672   3.713603   5.173436   5.312347
                   11         12         13         14         15
    11  Br   0.000000
    12  N    7.238007   0.000000
    13  C    6.974824   1.528285   0.000000
    14  C    7.331949   2.594736   1.517253   0.000000
    15  H    5.958080   2.109096   1.099241   2.105358   0.000000
    16  H    7.755198   2.092757   1.093941   2.170142   1.821048
    17  H    7.554327   3.481183   2.108893   1.093144   2.475159
    18  H    6.609682   2.972913   2.147039   1.089929   2.314488
    19  H    8.300895   2.881006   2.219659   1.092780   3.062773
    20  C    8.683135   1.504770   2.477230   3.061568   3.398408
    21  C    9.415931   2.559759   3.874251   4.532833   4.654647
    22  H    8.833031   2.096217   2.708110   2.707712   3.668687
    23  H    9.255163   2.092904   2.566796   3.207257   3.579124
    24  H   10.411232   3.466733   4.608071   5.038473   5.501025
    25  H    9.030454   2.819138   4.262621   4.851354   4.889934
    26  H    9.630749   2.928533   4.246868   5.173044   4.934637
    27  C    7.307947   1.522665   2.448100   3.864776   2.650605
    28  C    6.233906   2.576861   2.875835   4.334629   2.470344
    29  H    7.605000   2.097338   3.372442   4.664873   3.575838
    30  H    8.240401   2.101852   2.739372   4.133657   3.164900
    31  H    6.472562   3.448113   3.947179   5.411609   3.551209
    32  H    5.197002   2.707639   2.858356   4.116012   2.143781
    33  H    6.508465   3.074811   2.870894   4.312861   2.421601
    34  C    6.410016   1.534020   2.534808   3.146622   2.662609
    35  C    7.058706   2.594589   3.351724   3.287217   3.668774
    36  H    6.637933   2.106846   3.393418   4.191774   3.472623
    37  H    5.341291   2.114243   2.535949   3.139166   2.200444
    38  H    6.608757   3.486936   4.211004   4.128328   4.308228
    39  H    8.097069   2.963494   3.939200   3.878630   4.460761
    40  H    7.151523   2.900183   3.166139   2.625911   3.533452
                   16         17         18         19         20
    16  H    0.000000
    17  H    2.390177   0.000000
    18  H    3.053709   1.751500   0.000000
    19  H    2.648214   1.758839   1.793636   0.000000
    20  C    2.659783   3.950284   3.642351   2.781954   0.000000
    21  C    4.031956   5.462153   4.979134   4.200152   1.521318
    22  H    3.073638   3.650952   3.193466   2.132371   1.087727
    23  H    2.286548   3.857298   4.038504   2.895534   1.092963
    24  H    4.676268   5.925585   5.542493   4.484983   2.131098
    25  H    4.654048   5.874269   5.068538   4.586127   2.183822
    26  H    4.224597   6.022908   5.687681   4.967987   2.187573
    27  C    2.546093   4.548796   4.287518   4.263653   2.452419
    28  C    3.015136   4.813573   4.597478   5.033117   3.845207
    29  H    3.568031   5.464912   4.976588   4.945479   2.711114
    30  H    2.385897   4.681812   4.784157   4.401530   2.493633
    31  H    4.018620   5.904515   5.647063   6.070185   4.582908
    32  H    3.331764   4.617645   4.123773   4.936231   4.166883
    33  H    2.713846   4.550371   4.714505   5.075745   4.255807
    34  C    3.431278   4.148880   2.972007   3.484213   2.523538
    35  C    4.294724   4.356564   2.891204   3.289712   2.923270
    36  H    4.136842   5.181706   4.063179   4.469603   2.902758
    37  H    3.526329   3.986031   2.750473   3.777463   3.412521
    38  H    5.217019   5.142303   3.510581   4.236936   3.965810
    39  H    4.725109   4.963563   3.684453   3.594511   2.748269
    40  H    4.129604   3.633195   2.100215   2.569808   3.176167
                   21         22         23         24         25
    21  C    0.000000
    22  H    2.152463   0.000000
    23  H    2.160132   1.757709   0.000000
    24  H    1.092664   2.408457   2.511391   0.000000
    25  H    1.091449   2.565585   3.081722   1.761563   0.000000
    26  H    1.090811   3.073288   2.486866   1.759271   1.771520
    27  C    2.950025   3.384513   2.688187   3.965672   3.272706
    28  C    4.449105   4.647300   4.017774   5.481873   4.636395
    29  H    2.621104   3.660931   3.160829   3.686131   2.715710
    30  H    2.989834   3.518072   2.282711   3.839122   3.627375
    31  H    4.892323   5.471733   4.763117   5.938625   5.010535
    32  H    4.866696   4.776701   4.523641   5.916999   4.870039
    33  H    5.064486   5.026787   4.174374   6.017970   5.421799
    34  C    3.109772   2.713192   3.435413   4.029233   2.788430
    35  C    3.420529   2.543769   3.935527   4.033732   2.925825
    36  H    2.960047   3.308895   3.840799   3.956035   2.412905
    37  H    4.164608   3.576899   4.169843   5.104215   3.885212
    38  H    4.283969   3.627567   4.996664   4.909393   3.592358
    39  H    2.871670   2.283964   3.799833   3.277432   2.283261
    40  H    4.012435   2.525038   4.026273   4.496586   3.733937
                   26         27         28         29         30
    26  H    0.000000
    27  C    2.732669   0.000000
    28  C    4.198723   1.523752   0.000000
    29  H    2.241417   1.089284   2.164278   0.000000
    30  H    2.580001   1.093896   2.172918   1.761570   0.000000
    31  H    4.442472   2.136285   1.092729   2.331051   2.660879
    32  H    4.815170   2.197506   1.099587   2.732454   3.064405
    33  H    4.802840   2.170763   1.091709   3.034450   2.380544
    34  C    3.635272   2.475316   3.126037   2.568086   3.388730
    35  C    4.267945   3.846349   4.626809   3.862357   4.606693
    36  H    3.287456   2.457191   3.143814   2.087081   3.427466
    37  H    4.589984   2.822124   2.904268   3.114183   3.807074
    38  H    5.067391   4.561668   5.135305   4.458658   5.440460
    39  H    3.836162   4.154856   5.197718   4.000698   4.771055
    40  H    4.920442   4.335907   5.041064   4.581965   4.989876
                   31         32         33         34         35
    31  H    0.000000
    32  H    1.797780   0.000000
    33  H    1.764136   1.756719   0.000000
    34  C    3.845285   2.777572   3.895484   0.000000
    35  C    5.362844   4.226143   5.321743   1.519927   0.000000
    36  H    3.571599   2.923757   4.104588   1.091756   2.145306
    37  H    3.674155   2.200296   3.594944   1.114828   2.177562
    38  H    5.771003   4.566517   5.912264   2.107094   1.093239
    39  H    5.858387   4.979103   5.919378   2.208453   1.093589
    40  H    5.913422   4.596371   5.556532   2.190901   1.088916
                   36         37         38         39         40
    36  H    0.000000
    37  H    1.808623   0.000000
    38  H    2.453607   2.432735   0.000000
    39  H    2.506061   3.119933   1.759887   0.000000
    40  H    3.076380   2.552504   1.750033   1.773001   0.000000
 Symmetry turned off by external request.
 Stoichiometry    C11H26BrNO
 Framework group  C1[X(C11H26BrNO)]
 Deg. of freedom   114
 Full point group                 C1      NOp   1
 Rotational constants (GHZ):           0.9915179           0.1652657           0.1591927
 General basis read from cards:  (5D, 7F)
 ======================================================================================================
                                       Pseudopotential Parameters
 ======================================================================================================
  Center     Atomic      Valence      Angular      Power
  Number     Number     Electrons     Momentum     of R      Exponent        Coefficient   SO-Coeffient
 ======================================================================================================
    1          6
                                   No pseudopotential on this center.
    2          6
                                   No pseudopotential on this center.
    3          8
                                   No pseudopotential on this center.
    4          6
                                   No pseudopotential on this center.
    5          1
                                   No pseudopotential on this center.
    6          1
                                   No pseudopotential on this center.
    7          1
                                   No pseudopotential on this center.
    8          1
                                   No pseudopotential on this center.
    9          1
                                   No pseudopotential on this center.
   10          1
                                   No pseudopotential on this center.
   11         35
                                   No pseudopotential on this center.
   12          7
                                   No pseudopotential on this center.
   13          6
                                   No pseudopotential on this center.
   14          6
                                   No pseudopotential on this center.
   15          1
                                   No pseudopotential on this center.
   16          1
                                   No pseudopotential on this center.
   17          1
                                   No pseudopotential on this center.
   18          1
                                   No pseudopotential on this center.
   19          1
                                   No pseudopotential on this center.
   20          6
                                   No pseudopotential on this center.
   21          6
                                   No pseudopotential on this center.
   22          1
                                   No pseudopotential on this center.
   23          1
                                   No pseudopotential on this center.
   24          1
                                   No pseudopotential on this center.
   25          1
                                   No pseudopotential on this center.
   26          1
                                   No pseudopotential on this center.
   27          6
                                   No pseudopotential on this center.
   28          6
                                   No pseudopotential on this center.
   29          1
                                   No pseudopotential on this center.
   30          1
                                   No pseudopotential on this center.
   31          1
                                   No pseudopotential on this center.
   32          1
                                   No pseudopotential on this center.
   33          1
                                   No pseudopotential on this center.
   34          6
                                   No pseudopotential on this center.
   35          6
                                   No pseudopotential on this center.
   36          1
                                   No pseudopotential on this center.
   37          1
                                   No pseudopotential on this center.
   38          1
                                   No pseudopotential on this center.
   39          1
                                   No pseudopotential on this center.
   40          1
                                   No pseudopotential on this center.
 ======================================================================================================
   340 basis functions,   629 primitive gaussians,   355 cartesian basis functions
    71 alpha electrons       71 beta electrons
       nuclear repulsion energy      1321.8554127335 Hartrees.
 NAtoms=   40 NActive=   40 NUniq=   40 SFac= 1.00D+00 NAtFMM=   60 NAOKFM=F Big=F
 Integral buffers will be    131072 words long.
 Raffenetti 2 integral format.
 Two-electron integral symmetry is turned off.
 One-electron integrals computed using PRISM.
   1 Symmetry operations used in ECPInt.
 ECPInt:  NShTT=   10153 NPrTT=   46729 LenC2=    9094 LenP2D=   27385.
 LDataN:  DoStor=T MaxTD1= 4 Len=   56
 NBasis=   340 RedAO= T EigKep=  4.21D-03  NBF=   340
 NBsUse=   340 1.00D-06 EigRej= -1.00D+00 NBFU=   340
 ExpMin= 1.43D-01 ExpMax= 5.74D+05 ExpMxC= 5.74D+03 IAcc=3 IRadAn=         5 AccDes= 0.00D+00
 Harris functional with IExCor=20419 and IRadAn=       5 diagonalized for initial guess.
 HarFok:  IExCor=20419 AccDes= 0.00D+00 IRadAn=         5 IDoV= 1 UseB2=F ITyADJ=14
 ICtDFT=  3500011 ScaDFX=  1.000000  1.000000  1.000000  1.000000
 FoFCou: FMM=F IPFlag=           0 FMFlag=      100000 FMFlg1=           0
         NFxFlg=           0 DoJE=T BraDBF=F KetDBF=T FulRan=T
         wScrn=  0.000000 ICntrl=       500 IOpCl=  0 I1Cent=   200000004 NGrid=           0
         NMat0=    1 NMatS0=      1 NMatT0=    0 NMatD0=    1 NMtDS0=    0 NMtDT0=    0
 Symmetry not used in FoFCou.
 Requested convergence on RMS density matrix=1.00D-08 within  32 cycles.
 Requested convergence on MAX density matrix=1.00D-06.
 Requested convergence on             energy=1.00D-06.
 No special actions if energy rises.
 Integral accuracy reduced to 1.0D-05 until final iterations.
 Initial convergence to 1.0D-05 achieved.  Increase integral accuracy.
 SCF Done:  E(RCAM-B3LYP) =  -3135.92534208     A.U. after   14 cycles
            NFock= 14  Conv=0.44D-08     -V/T= 2.0012
 QCSCF skips out because SCF is already converged.
 DoSCS=F DFT=T ScalE2(SS,OS)=  1.000000  1.000000
 Range of M.O.s used for correlation:     1   340
 NBasis=   340 NAE=    71 NBE=    71 NFC=     0 NFV=     0
 NROrb=    340 NOA=    71 NOB=    71 NVA=   269 NVB=   269
   1 Symmetry operations used in ECPInt.
 ECPInt:  NShTT=   10153 NPrTT=   46729 LenC2=    9094 LenP2D=   27385.
 LDataN:  DoStor=T MaxTD1= 5 Len=  102
 Number of processors reduced to  32 by ecpmxn.
 Symmetrizing basis deriv contribution to polar:
 IMax=3 JMax=2 DiffMx= 0.00D+00
 G2DrvN: will do    41 centers at a time, making    1 passes.
 Calling FoFCou, ICntrl=  3107 FMM=F I1Cent=   0 AccDes= 0.00D+00.
 End of G2Drv F.D. properties file   721 does not exist.
 End of G2Drv F.D. properties file   722 does not exist.
 End of G2Drv F.D. properties file   788 does not exist.
          IDoAtm=1111111111111111111111111111111111111111
          Differentiating once with respect to nuclear coordinates.
 CalDSu exits because no D1Ps are significant.
          There are   123 degrees of freedom in the 1st order CPHF.  IDoFFX=6 NUNeed=     0.
    117 vectors produced by pass  0 Test12= 1.91D-14 1.00D-09 XBig12= 1.12D-01 6.02D-02.
 AX will form   117 AO Fock derivatives at one time.
    117 vectors produced by pass  1 Test12= 1.91D-14 1.00D-09 XBig12= 2.92D-02 4.93D-02.
    117 vectors produced by pass  2 Test12= 1.91D-14 1.00D-09 XBig12= 4.46D-04 4.01D-03.
    117 vectors produced by pass  3 Test12= 1.91D-14 1.00D-09 XBig12= 2.70D-06 2.20D-04.
    117 vectors produced by pass  4 Test12= 1.91D-14 1.00D-09 XBig12= 1.14D-08 1.29D-05.
    117 vectors produced by pass  5 Test12= 1.91D-14 1.00D-09 XBig12= 3.77D-11 6.52D-07.
     46 vectors produced by pass  6 Test12= 1.91D-14 1.00D-09 XBig12= 1.23D-13 3.16D-08.
      2 vectors produced by pass  7 Test12= 1.91D-14 1.00D-09 XBig12= 3.19D-16 1.55D-09.
 InvSVY:  IOpt=1 It=  1 EMax= 4.44D-16
 Solved reduced A of dimension   750 with   123 vectors.
 End of Minotr F.D. properties file   721 does not exist.
 End of Minotr F.D. properties file   722 does not exist.
 End of Minotr F.D. properties file   788 does not exist.

 **********************************************************************

            Population analysis using the SCF Density.

 **********************************************************************

 Alpha  occ. eigenvalues -- -482.66828 -61.75086 -56.32042 -56.31715 -56.31704
 Alpha  occ. eigenvalues --  -19.06981 -14.53486 -10.33730 -10.32689 -10.30071
 Alpha  occ. eigenvalues --  -10.29312 -10.29268 -10.26715 -10.26283 -10.24848
 Alpha  occ. eigenvalues --  -10.24711 -10.23725 -10.18922  -8.53320  -6.54999
 Alpha  occ. eigenvalues --   -6.53868  -6.53853  -2.67165  -2.66847  -2.66835
 Alpha  occ. eigenvalues --   -2.65937  -2.65937  -1.10205  -0.95721  -0.89485
 Alpha  occ. eigenvalues --   -0.87630  -0.86890  -0.82793  -0.81958  -0.76150
 Alpha  occ. eigenvalues --   -0.74831  -0.73649  -0.73045  -0.68983  -0.66020
 Alpha  occ. eigenvalues --   -0.60396  -0.59973  -0.58527  -0.58234  -0.55951
 Alpha  occ. eigenvalues --   -0.54480  -0.51619  -0.50799  -0.49830  -0.48926
 Alpha  occ. eigenvalues --   -0.48192  -0.47594  -0.47152  -0.46612  -0.46127
 Alpha  occ. eigenvalues --   -0.45561  -0.44308  -0.44057  -0.43755  -0.42913
 Alpha  occ. eigenvalues --   -0.41964  -0.41654  -0.41392  -0.39231  -0.37104
 Alpha  occ. eigenvalues --   -0.36815  -0.33454  -0.28779  -0.28349  -0.21632
 Alpha  occ. eigenvalues --   -0.21435
 Alpha virt. eigenvalues --    0.08857   0.10892   0.11257   0.12144   0.13123
 Alpha virt. eigenvalues --    0.13890   0.15422   0.16452   0.16846   0.17216
 Alpha virt. eigenvalues --    0.18215   0.19057   0.19311   0.19834   0.20275
 Alpha virt. eigenvalues --    0.21058   0.21434   0.21931   0.22816   0.23177
 Alpha virt. eigenvalues --    0.23605   0.24374   0.25055   0.25475   0.25968
 Alpha virt. eigenvalues --    0.26844   0.27364   0.28683   0.28908   0.29611
 Alpha virt. eigenvalues --    0.30460   0.30919   0.31288   0.32627   0.34586
 Alpha virt. eigenvalues --    0.35546   0.38088   0.40704   0.49848   0.50768
 Alpha virt. eigenvalues --    0.52006   0.53592   0.54102   0.55057   0.55901
 Alpha virt. eigenvalues --    0.56962   0.57725   0.58332   0.58487   0.58921
 Alpha virt. eigenvalues --    0.59071   0.59800   0.61340   0.61411   0.63163
 Alpha virt. eigenvalues --    0.64345   0.65720   0.66156   0.67273   0.67355
 Alpha virt. eigenvalues --    0.67768   0.69074   0.69936   0.71713   0.72232
 Alpha virt. eigenvalues --    0.73405   0.75131   0.76324   0.76764   0.78041
 Alpha virt. eigenvalues --    0.79446   0.80302   0.81721   0.83324   0.85001
 Alpha virt. eigenvalues --    0.87869   0.88415   0.89018   0.89312   0.90130
 Alpha virt. eigenvalues --    0.90908   0.91187   0.91658   0.92103   0.93096
 Alpha virt. eigenvalues --    0.93340   0.93943   0.94809   0.95767   0.96419
 Alpha virt. eigenvalues --    0.97904   0.98309   0.99774   0.99915   1.00828
 Alpha virt. eigenvalues --    1.01161   1.02323   1.02417   1.03414   1.04589
 Alpha virt. eigenvalues --    1.05861   1.06703   1.07857   1.08715   1.09651
 Alpha virt. eigenvalues --    1.11479   1.13303   1.14944   1.15922   1.20514
 Alpha virt. eigenvalues --    1.23199   1.25443   1.27236   1.30774   1.33366
 Alpha virt. eigenvalues --    1.35599   1.38378   1.40130   1.41860   1.46366
 Alpha virt. eigenvalues --    1.47221   1.49652   1.51175   1.51470   1.54452
 Alpha virt. eigenvalues --    1.57043   1.59701   1.60143   1.62403   1.64213
 Alpha virt. eigenvalues --    1.65831   1.67502   1.69253   1.70263   1.72467
 Alpha virt. eigenvalues --    1.74715   1.75103   1.77359   1.80733   1.86082
 Alpha virt. eigenvalues --    1.87252   1.88369   1.88796   1.90166   1.90819
 Alpha virt. eigenvalues --    1.92394   1.93094   1.94235   1.96015   1.97083
 Alpha virt. eigenvalues --    1.97838   2.00660   2.03844   2.04186   2.05201
 Alpha virt. eigenvalues --    2.06317   2.07678   2.09307   2.09574   2.10026
 Alpha virt. eigenvalues --    2.10306   2.10767   2.11878   2.12213   2.13569
 Alpha virt. eigenvalues --    2.15113   2.15475   2.16029   2.16563   2.17724
 Alpha virt. eigenvalues --    2.17894   2.18686   2.19613   2.20269   2.20675
 Alpha virt. eigenvalues --    2.21165   2.21297   2.24207   2.24332   2.25589
 Alpha virt. eigenvalues --    2.26228   2.28236   2.29071   2.30426   2.31575
 Alpha virt. eigenvalues --    2.33524   2.35305   2.35964   2.36988   2.37856
 Alpha virt. eigenvalues --    2.41428   2.42168   2.42892   2.44658   2.45406
 Alpha virt. eigenvalues --    2.46919   2.47782   2.51024   2.51378   2.52156
 Alpha virt. eigenvalues --    2.55156   2.55851   2.56801   2.58726   2.61390
 Alpha virt. eigenvalues --    2.64511   2.67813   2.68577   2.69920   2.70605
 Alpha virt. eigenvalues --    2.72193   2.73699   2.74373   2.76215   2.78063
 Alpha virt. eigenvalues --    2.79570   2.79856   2.80786   2.81222   2.82421
 Alpha virt. eigenvalues --    2.84131   2.85305   2.86203   2.88052   2.88476
 Alpha virt. eigenvalues --    2.89277   2.91549   2.92136   2.92577   2.94750
 Alpha virt. eigenvalues --    2.94836   2.96500   2.97756   2.98634   2.99957
 Alpha virt. eigenvalues --    3.00651   3.01225   3.02391   3.03245   3.04773
 Alpha virt. eigenvalues --    3.07105   3.21936   3.25176   3.28426   3.29256
 Alpha virt. eigenvalues --    3.30622   3.32362   3.34700   3.37274   3.39298
 Alpha virt. eigenvalues --    3.39756   3.41204   3.46063   3.47753   3.47887
 Alpha virt. eigenvalues --    3.50477   3.50886   3.51476   3.54641   3.54919
 Alpha virt. eigenvalues --    3.56294   3.57057   3.58584   3.59687   3.60916
 Alpha virt. eigenvalues --    3.61104   3.64367   3.66593   8.58129
          Condensed to atoms (all electrons):
               1          2          3          4          5          6
     1  C    4.553150   0.316843   0.344704   0.338185  -0.028113  -0.025908
     2  C    0.316843   5.145583  -0.059244  -0.048293   0.374689   0.356596
     3  O    0.344704  -0.059244   8.343207  -0.065893   0.002690   0.004906
     4  C    0.338185  -0.048293  -0.065893   5.107276   0.006998  -0.013699
     5  H   -0.028113   0.374689   0.002690   0.006998   0.606322  -0.037878
     6  H   -0.025908   0.356596   0.004906  -0.013699  -0.037878   0.626414
     7  H   -0.026961   0.006669   0.001537   0.374463  -0.000179  -0.000143
     8  H   -0.027352  -0.012635   0.002690   0.362460  -0.000095   0.007065
     9  H   -0.013757  -0.002177   0.003781   0.336757  -0.000086   0.000623
    10  H    0.360120  -0.074864  -0.042525  -0.080274  -0.008912   0.008255
    11  Br  -0.033126   0.172928   0.003559  -0.004479  -0.042117  -0.039983
    12  N    0.000008  -0.000003   0.000390   0.000003   0.000001   0.000002
    13  C   -0.000149  -0.000057  -0.042704  -0.000242  -0.000027   0.000017
    14  C    0.000043  -0.000005  -0.003378  -0.000053   0.000001  -0.000000
    15  H    0.001289   0.000444   0.078184   0.000746   0.000135  -0.000089
    16  H   -0.000011   0.000001   0.000866  -0.000001  -0.000000  -0.000000
    17  H    0.000012   0.000000   0.000044  -0.000007  -0.000000   0.000000
    18  H    0.000049   0.000047   0.010562  -0.000211  -0.000001  -0.000001
    19  H    0.000005   0.000000   0.000079  -0.000000  -0.000000  -0.000000
    20  C    0.000002  -0.000000  -0.000073  -0.000000   0.000000  -0.000000
    21  C   -0.000000   0.000000   0.000000  -0.000000   0.000000  -0.000000
    22  H    0.000000  -0.000000  -0.000004  -0.000000   0.000000  -0.000000
    23  H   -0.000000   0.000000   0.000001  -0.000000  -0.000000   0.000000
    24  H    0.000000  -0.000000   0.000000  -0.000000  -0.000000   0.000000
    25  H   -0.000000   0.000000   0.000000  -0.000000  -0.000000   0.000000
    26  H    0.000000  -0.000000  -0.000000  -0.000000   0.000000   0.000000
    27  C   -0.000005   0.000005   0.000417   0.000001   0.000008  -0.000003
    28  C    0.000777  -0.000074  -0.033581  -0.000076  -0.000544  -0.000057
    29  H   -0.000000  -0.000000   0.000000  -0.000000  -0.000000   0.000000
    30  H    0.000000  -0.000000  -0.000016  -0.000000  -0.000000  -0.000000
    31  H   -0.000005   0.000003   0.000447   0.000001   0.000052  -0.000001
    32  H   -0.002924  -0.000942   0.066636   0.000556   0.002474   0.000290
    33  H    0.000029  -0.000008   0.000058   0.000001   0.000011   0.000001
    34  C    0.003824   0.000105  -0.072258   0.000638   0.000089  -0.000595
    35  C   -0.000043  -0.000004   0.000942   0.000010  -0.000000   0.000002
    36  H   -0.000046   0.000000   0.000793  -0.000011  -0.000004   0.000024
    37  H   -0.009516  -0.001156   0.124092  -0.003781  -0.000453   0.002315
    38  H   -0.000006  -0.000006   0.000164   0.000013  -0.000000   0.000019
    39  H    0.000002  -0.000000  -0.000017   0.000002  -0.000000  -0.000000
    40  H   -0.000035  -0.000000   0.000103   0.000019  -0.000000   0.000000
               7          8          9         10         11         12
     1  C   -0.026961  -0.027352  -0.013757   0.360120  -0.033126   0.000008
     2  C    0.006669  -0.012635  -0.002177  -0.074864   0.172928  -0.000003
     3  O    0.001537   0.002690   0.003781  -0.042525   0.003559   0.000390
     4  C    0.374463   0.362460   0.336757  -0.080274  -0.004479   0.000003
     5  H   -0.000179  -0.000095  -0.000086  -0.008912  -0.042117   0.000001
     6  H   -0.000143   0.007065   0.000623   0.008255  -0.039983   0.000002
     7  H    0.643393  -0.035603  -0.029190  -0.006964  -0.000130  -0.000005
     8  H   -0.035603   0.657967  -0.028727   0.007737   0.000898   0.000006
     9  H   -0.029190  -0.028727   0.632123   0.003174   0.004365  -0.000000
    10  H   -0.006964   0.007737   0.003174   0.803092   0.007144   0.000001
    11  Br  -0.000130   0.000898   0.004365   0.007144  35.187957   0.000000
    12  N   -0.000005   0.000006  -0.000000   0.000001   0.000000   6.859197
    13  C   -0.000109   0.000042   0.000005   0.000560   0.000001   0.241704
    14  C   -0.000398  -0.000015  -0.000002  -0.000048   0.000000  -0.035498
    15  H    0.000304  -0.000128  -0.000022  -0.002590  -0.000013  -0.024957
    16  H    0.000002  -0.000000   0.000000  -0.000003  -0.000000  -0.044859
    17  H    0.000015   0.000000  -0.000000   0.000002  -0.000000   0.003400
    18  H    0.002438   0.000024   0.000023  -0.000003  -0.000001  -0.002357
    19  H    0.000005  -0.000000   0.000000  -0.000000  -0.000000  -0.005015
    20  C    0.000000  -0.000000   0.000000  -0.000000   0.000000   0.257862
    21  C    0.000000  -0.000000   0.000000  -0.000000  -0.000000  -0.039767
    22  H   -0.000000  -0.000000  -0.000000  -0.000000   0.000000  -0.034990
    23  H    0.000000   0.000000   0.000000   0.000000  -0.000000  -0.039028
    24  H   -0.000000   0.000000   0.000000   0.000000   0.000000   0.003305
    25  H   -0.000000   0.000000   0.000000   0.000000   0.000000  -0.003977
    26  H    0.000000  -0.000000   0.000000  -0.000000  -0.000000  -0.003167
    27  C    0.000000   0.000000  -0.000000  -0.000001  -0.000000   0.252732
    28  C    0.000003  -0.000002   0.000001  -0.000083  -0.000010  -0.040248
    29  H   -0.000000   0.000000   0.000000   0.000000  -0.000000  -0.036392
    30  H    0.000000   0.000000   0.000000  -0.000000  -0.000000  -0.042695
    31  H   -0.000000   0.000000  -0.000000  -0.000000   0.000000   0.003419
    32  H   -0.000025   0.000007  -0.000014   0.000261   0.000094  -0.002450
    33  H   -0.000000   0.000000  -0.000000   0.000005   0.000000  -0.000985
    34  C    0.000084  -0.001256  -0.000015  -0.000385  -0.000001   0.214656
    35  C    0.000010   0.000164   0.000002   0.000005   0.000000  -0.034672
    36  H    0.000002   0.000009   0.000000   0.000002  -0.000000  -0.041447
    37  H   -0.000299   0.003226   0.000115   0.002068   0.000026  -0.023618
    38  H   -0.000016   0.000672   0.000000   0.000002   0.000000   0.003246
    39  H    0.000001  -0.000001  -0.000000  -0.000000  -0.000000  -0.003959
    40  H    0.000017   0.000047   0.000000   0.000002   0.000000  -0.001959
              13         14         15         16         17         18
     1  C   -0.000149   0.000043   0.001289  -0.000011   0.000012   0.000049
     2  C   -0.000057  -0.000005   0.000444   0.000001   0.000000   0.000047
     3  O   -0.042704  -0.003378   0.078184   0.000866   0.000044   0.010562
     4  C   -0.000242  -0.000053   0.000746  -0.000001  -0.000007  -0.000211
     5  H   -0.000027   0.000001   0.000135  -0.000000  -0.000000  -0.000001
     6  H    0.000017  -0.000000  -0.000089  -0.000000   0.000000  -0.000001
     7  H   -0.000109  -0.000398   0.000304   0.000002   0.000015   0.002438
     8  H    0.000042  -0.000015  -0.000128  -0.000000   0.000000   0.000024
     9  H    0.000005  -0.000002  -0.000022   0.000000  -0.000000   0.000023
    10  H    0.000560  -0.000048  -0.002590  -0.000003   0.000002  -0.000003
    11  Br   0.000001   0.000000  -0.000013  -0.000000  -0.000000  -0.000001
    12  N    0.241704  -0.035498  -0.024957  -0.044859   0.003400  -0.002357
    13  C    5.052129   0.371099   0.297232   0.374813  -0.023868  -0.031584
    14  C    0.371099   4.948996  -0.027074  -0.041965   0.382376   0.378543
    15  H    0.297232  -0.027074   0.483992  -0.014477  -0.001596  -0.004696
    16  H    0.374813  -0.041965  -0.014477   0.627214  -0.005450   0.005116
    17  H   -0.023868   0.382376  -0.001596  -0.005450   0.565841  -0.021434
    18  H   -0.031584   0.378543  -0.004696   0.005116  -0.021434   0.532010
    19  H   -0.035714   0.376680   0.003837  -0.001381  -0.027783  -0.029032
    20  C   -0.042284  -0.003908   0.002928  -0.008073   0.000012  -0.000364
    21  C    0.003837   0.000228  -0.000125  -0.000023  -0.000002  -0.000006
    22  H   -0.004282   0.001627   0.000021  -0.000371  -0.000068  -0.000054
    23  H   -0.002425  -0.001184   0.000073   0.005557  -0.000051   0.000068
    24  H   -0.000069   0.000002   0.000002  -0.000003  -0.000000  -0.000000
    25  H    0.000023  -0.000012   0.000003  -0.000002  -0.000000  -0.000001
    26  H   -0.000086  -0.000003  -0.000002  -0.000003   0.000000   0.000000
    27  C   -0.043997   0.003927  -0.006861  -0.001429  -0.000091   0.000048
    28  C    0.001586   0.000074   0.002667  -0.002918   0.000017   0.000062
    29  H    0.004084  -0.000174  -0.000035   0.000178   0.000003   0.000006
    30  H   -0.004917  -0.000072  -0.000136   0.003486  -0.000000   0.000005
    31  H    0.000327  -0.000007   0.000285  -0.000034  -0.000000  -0.000001
    32  H   -0.004467   0.000178  -0.002659  -0.000248  -0.000000  -0.000205
    33  H    0.001497  -0.000008  -0.001256   0.000473   0.000003   0.000002
    34  C   -0.053585  -0.001575   0.012574   0.004672  -0.000096   0.002606
    35  C   -0.002090  -0.002925  -0.000505  -0.000215   0.000259  -0.005008
    36  H    0.003885  -0.000111   0.000165  -0.000222   0.000003   0.000025
    37  H    0.015576  -0.002376  -0.018551   0.000220  -0.000012   0.001069
    38  H    0.000030   0.000010  -0.000028   0.000004  -0.000004   0.000271
    39  H    0.000020  -0.000006   0.000001   0.000012  -0.000007   0.000090
    40  H   -0.000029   0.002542   0.000012  -0.000026   0.000074   0.002076
              19         20         21         22         23         24
     1  C    0.000005   0.000002  -0.000000   0.000000  -0.000000   0.000000
     2  C    0.000000  -0.000000   0.000000  -0.000000   0.000000  -0.000000
     3  O    0.000079  -0.000073   0.000000  -0.000004   0.000001   0.000000
     4  C   -0.000000  -0.000000  -0.000000  -0.000000  -0.000000  -0.000000
     5  H   -0.000000   0.000000   0.000000   0.000000  -0.000000  -0.000000
     6  H   -0.000000  -0.000000  -0.000000  -0.000000   0.000000   0.000000
     7  H    0.000005   0.000000   0.000000  -0.000000   0.000000  -0.000000
     8  H   -0.000000  -0.000000  -0.000000  -0.000000   0.000000   0.000000
     9  H    0.000000   0.000000   0.000000  -0.000000   0.000000   0.000000
    10  H   -0.000000  -0.000000  -0.000000  -0.000000   0.000000   0.000000
    11  Br  -0.000000   0.000000  -0.000000   0.000000  -0.000000   0.000000
    12  N   -0.005015   0.257862  -0.039767  -0.034990  -0.039028   0.003305
    13  C   -0.035714  -0.042284   0.003837  -0.004282  -0.002425  -0.000069
    14  C    0.376680  -0.003908   0.000228   0.001627  -0.001184   0.000002
    15  H    0.003837   0.002928  -0.000125   0.000021   0.000073   0.000002
    16  H   -0.001381  -0.008073  -0.000023  -0.000371   0.005557  -0.000003
    17  H   -0.027783   0.000012  -0.000002  -0.000068  -0.000051  -0.000000
    18  H   -0.029032  -0.000364  -0.000006  -0.000054   0.000068  -0.000000
    19  H    0.621621   0.001114   0.000001   0.001899   0.000420   0.000014
    20  C    0.001114   4.861996   0.366315   0.401492   0.395311  -0.026563
    21  C    0.000001   0.366315   4.925290  -0.035224  -0.037058   0.386720
    22  H    0.001899   0.401492  -0.035224   0.558726  -0.031764  -0.003800
    23  H    0.000420   0.395311  -0.037058  -0.031764   0.580584  -0.001642
    24  H    0.000014  -0.026563   0.386720  -0.003800  -0.001642   0.559611
    25  H    0.000009  -0.032303   0.391676  -0.003642   0.004407  -0.024280
    26  H   -0.000002  -0.031452   0.390877   0.004249  -0.005213  -0.026010
    27  C   -0.000114  -0.041663  -0.004912   0.004276  -0.006545   0.000166
    28  C    0.000015   0.004007   0.000209  -0.000152  -0.000064  -0.000004
    29  H   -0.000001  -0.007443   0.003469  -0.000161  -0.000056   0.000120
    30  H   -0.000002  -0.001575  -0.003241   0.000253   0.004411  -0.000035
    31  H    0.000000  -0.000047  -0.000009   0.000003  -0.000001  -0.000000
    32  H   -0.000019   0.000053  -0.000016   0.000004  -0.000001   0.000000
    33  H   -0.000002  -0.000175   0.000010  -0.000000  -0.000029   0.000000
    34  C   -0.000138  -0.038433  -0.001757  -0.008130   0.004614  -0.000052
    35  C   -0.001006  -0.002036  -0.005294   0.005136   0.000106   0.000062
    36  H   -0.000006  -0.004151   0.001407   0.000050  -0.000170   0.000024
    37  H    0.000022   0.002122   0.000050  -0.000036  -0.000074  -0.000001
    38  H    0.000020   0.000154   0.000066  -0.000034  -0.000005  -0.000001
    39  H   -0.000053   0.001103  -0.000720  -0.000380   0.000071   0.000106
    40  H    0.000216  -0.002373   0.000259   0.000349  -0.000013   0.000000
              25         26         27         28         29         30
     1  C   -0.000000   0.000000  -0.000005   0.000777  -0.000000   0.000000
     2  C    0.000000  -0.000000   0.000005  -0.000074  -0.000000  -0.000000
     3  O    0.000000  -0.000000   0.000417  -0.033581   0.000000  -0.000016
     4  C   -0.000000  -0.000000   0.000001  -0.000076  -0.000000  -0.000000
     5  H   -0.000000   0.000000   0.000008  -0.000544  -0.000000  -0.000000
     6  H    0.000000   0.000000  -0.000003  -0.000057   0.000000  -0.000000
     7  H   -0.000000   0.000000   0.000000   0.000003  -0.000000   0.000000
     8  H    0.000000  -0.000000   0.000000  -0.000002   0.000000   0.000000
     9  H    0.000000   0.000000  -0.000000   0.000001   0.000000   0.000000
    10  H    0.000000  -0.000000  -0.000001  -0.000083   0.000000  -0.000000
    11  Br   0.000000  -0.000000  -0.000000  -0.000010  -0.000000  -0.000000
    12  N   -0.003977  -0.003167   0.252732  -0.040248  -0.036392  -0.042695
    13  C    0.000023  -0.000086  -0.043997   0.001586   0.004084  -0.004917
    14  C   -0.000012  -0.000003   0.003927   0.000074  -0.000174  -0.000072
    15  H    0.000003  -0.000002  -0.006861   0.002667  -0.000035  -0.000136
    16  H   -0.000002  -0.000003  -0.001429  -0.002918   0.000178   0.003486
    17  H   -0.000000   0.000000  -0.000091   0.000017   0.000003  -0.000000
    18  H   -0.000001   0.000000   0.000048   0.000062   0.000006   0.000005
    19  H    0.000009  -0.000002  -0.000114   0.000015  -0.000001  -0.000002
    20  C   -0.032303  -0.031452  -0.041663   0.004007  -0.007443  -0.001575
    21  C    0.391676   0.390877  -0.004912   0.000209   0.003469  -0.003241
    22  H   -0.003642   0.004249   0.004276  -0.000152  -0.000161   0.000253
    23  H    0.004407  -0.005213  -0.006545  -0.000064  -0.000056   0.004411
    24  H   -0.024280  -0.026010   0.000166  -0.000004   0.000120  -0.000035
    25  H    0.557559  -0.028642  -0.001492  -0.000017   0.000459   0.000150
    26  H   -0.028642   0.569516   0.002704   0.000033  -0.000902   0.001203
    27  C   -0.001492   0.002704   4.883096   0.356946   0.398644   0.392614
    28  C   -0.000017   0.000033   0.356946   5.067487  -0.032461  -0.034227
    29  H    0.000459  -0.000902   0.398644  -0.032461   0.581350  -0.034746
    30  H    0.000150   0.001203   0.392614  -0.034227  -0.034746   0.600003
    31  H   -0.000000   0.000011  -0.028172   0.368862  -0.008000   0.001239
    32  H   -0.000000   0.000004  -0.023882   0.312808  -0.000802   0.002803
    33  H   -0.000000  -0.000004  -0.033980   0.392297   0.004399  -0.008998
    34  C    0.004254  -0.000505  -0.036568  -0.002612  -0.008092   0.004327
    35  C   -0.001109   0.000178   0.003065   0.000130   0.000150  -0.000211
    36  H    0.000056  -0.000118  -0.006030  -0.000600   0.004795   0.000557
    37  H    0.000046  -0.000005  -0.002248   0.001228   0.000175  -0.000117
    38  H   -0.000037   0.000000  -0.000071   0.000002  -0.000012   0.000003
    39  H    0.002345  -0.000011  -0.000065   0.000004   0.000004  -0.000005
    40  H   -0.000025  -0.000008  -0.000016  -0.000012   0.000003   0.000007
              31         32         33         34         35         36
     1  C   -0.000005  -0.002924   0.000029   0.003824  -0.000043  -0.000046
     2  C    0.000003  -0.000942  -0.000008   0.000105  -0.000004   0.000000
     3  O    0.000447   0.066636   0.000058  -0.072258   0.000942   0.000793
     4  C    0.000001   0.000556   0.000001   0.000638   0.000010  -0.000011
     5  H    0.000052   0.002474   0.000011   0.000089  -0.000000  -0.000004
     6  H   -0.000001   0.000290   0.000001  -0.000595   0.000002   0.000024
     7  H   -0.000000  -0.000025  -0.000000   0.000084   0.000010   0.000002
     8  H    0.000000   0.000007   0.000000  -0.001256   0.000164   0.000009
     9  H   -0.000000  -0.000014  -0.000000  -0.000015   0.000002   0.000000
    10  H   -0.000000   0.000261   0.000005  -0.000385   0.000005   0.000002
    11  Br   0.000000   0.000094   0.000000  -0.000001   0.000000  -0.000000
    12  N    0.003419  -0.002450  -0.000985   0.214656  -0.034672  -0.041447
    13  C    0.000327  -0.004467   0.001497  -0.053585  -0.002090   0.003885
    14  C   -0.000007   0.000178  -0.000008  -0.001575  -0.002925  -0.000111
    15  H    0.000285  -0.002659  -0.001256   0.012574  -0.000505   0.000165
    16  H   -0.000034  -0.000248   0.000473   0.004672  -0.000215  -0.000222
    17  H   -0.000000  -0.000000   0.000003  -0.000096   0.000259   0.000003
    18  H   -0.000001  -0.000205   0.000002   0.002606  -0.005008   0.000025
    19  H    0.000000  -0.000019  -0.000002  -0.000138  -0.001006  -0.000006
    20  C   -0.000047   0.000053  -0.000175  -0.038433  -0.002036  -0.004151
    21  C   -0.000009  -0.000016   0.000010  -0.001757  -0.005294   0.001407
    22  H    0.000003   0.000004  -0.000000  -0.008130   0.005136   0.000050
    23  H   -0.000001  -0.000001  -0.000029   0.004614   0.000106  -0.000170
    24  H   -0.000000   0.000000   0.000000  -0.000052   0.000062   0.000024
    25  H   -0.000000  -0.000000  -0.000000   0.004254  -0.001109   0.000056
    26  H    0.000011   0.000004  -0.000004  -0.000505   0.000178  -0.000118
    27  C   -0.028172  -0.023882  -0.033980  -0.036568   0.003065  -0.006030
    28  C    0.368862   0.312808   0.392297  -0.002612   0.000130  -0.000600
    29  H   -0.008000  -0.000802   0.004399  -0.008092   0.000150   0.004795
    30  H    0.001239   0.002803  -0.008998   0.004327  -0.000211   0.000557
    31  H    0.598717  -0.010950  -0.030810  -0.000019  -0.000001  -0.000091
    32  H   -0.010950   0.488708  -0.021121   0.001680   0.000101  -0.000507
    33  H   -0.030810  -0.021121   0.582674  -0.000071  -0.000004  -0.000006
    34  C   -0.000019   0.001680  -0.000071   5.189692   0.365330   0.381845
    35  C   -0.000001   0.000101  -0.000004   0.365330   4.919268  -0.044224
    36  H   -0.000091  -0.000507  -0.000006   0.381845  -0.044224   0.615864
    37  H   -0.000073  -0.001240   0.000108   0.224600  -0.016039  -0.012780
    38  H   -0.000000   0.000012  -0.000000  -0.027886   0.387847  -0.002213
    39  H   -0.000000  -0.000009   0.000000  -0.035120   0.382103  -0.005877
    40  H    0.000000   0.000014  -0.000000  -0.032353   0.390036   0.004785
              37         38         39         40
     1  C   -0.009516  -0.000006   0.000002  -0.000035
     2  C   -0.001156  -0.000006  -0.000000  -0.000000
     3  O    0.124092   0.000164  -0.000017   0.000103
     4  C   -0.003781   0.000013   0.000002   0.000019
     5  H   -0.000453  -0.000000  -0.000000  -0.000000
     6  H    0.002315   0.000019  -0.000000   0.000000
     7  H   -0.000299  -0.000016   0.000001   0.000017
     8  H    0.003226   0.000672  -0.000001   0.000047
     9  H    0.000115   0.000000  -0.000000   0.000000
    10  H    0.002068   0.000002  -0.000000   0.000002
    11  Br   0.000026   0.000000  -0.000000   0.000000
    12  N   -0.023618   0.003246  -0.003959  -0.001959
    13  C    0.015576   0.000030   0.000020  -0.000029
    14  C   -0.002376   0.000010  -0.000006   0.002542
    15  H   -0.018551  -0.000028   0.000001   0.000012
    16  H    0.000220   0.000004   0.000012  -0.000026
    17  H   -0.000012  -0.000004  -0.000007   0.000074
    18  H    0.001069   0.000271   0.000090   0.002076
    19  H    0.000022   0.000020  -0.000053   0.000216
    20  C    0.002122   0.000154   0.001103  -0.002373
    21  C    0.000050   0.000066  -0.000720   0.000259
    22  H   -0.000036  -0.000034  -0.000380   0.000349
    23  H   -0.000074  -0.000005   0.000071  -0.000013
    24  H   -0.000001  -0.000001   0.000106   0.000000
    25  H    0.000046  -0.000037   0.002345  -0.000025
    26  H   -0.000005   0.000000  -0.000011  -0.000008
    27  C   -0.002248  -0.000071  -0.000065  -0.000016
    28  C    0.001228   0.000002   0.000004  -0.000012
    29  H    0.000175  -0.000012   0.000004   0.000003
    30  H   -0.000117   0.000003  -0.000005   0.000007
    31  H   -0.000073  -0.000000  -0.000000   0.000000
    32  H   -0.001240   0.000012  -0.000009   0.000014
    33  H    0.000108  -0.000000   0.000000  -0.000000
    34  C    0.224600  -0.027886  -0.035120  -0.032353
    35  C   -0.016039   0.387847   0.382103   0.390036
    36  H   -0.012780  -0.002213  -0.005877   0.004785
    37  H    0.496157  -0.001897   0.002520  -0.002553
    38  H   -0.001897   0.550300  -0.028396  -0.021371
    39  H    0.002520  -0.028396   0.624467  -0.033923
    40  H   -0.002553  -0.021371  -0.033923   0.568206
 Mulliken charges:
               1
     1  C    0.248917
     2  C   -0.174444
     3  O   -0.671158
     4  C   -0.311104
     5  H    0.124941
     6  H    0.111828
     7  H    0.071081
     8  H    0.062801
     9  H    0.093022
    10  H    0.024224
    11  Br  -0.257112
    12  N   -0.377886
    13  C   -0.075782
    14  C   -0.345529
    15  H    0.220903
    16  H    0.099101
    17  H    0.128408
    18  H    0.159818
    19  H    0.094311
    20  C   -0.051555
    21  C   -0.342258
    22  H    0.145006
    23  H    0.129702
    24  H    0.132326
    25  H    0.134552
    26  H    0.127359
    27  C   -0.060506
    28  C   -0.361473
    29  H    0.131437
    30  H    0.119933
    31  H    0.104857
    32  H    0.195800
    33  H    0.115890
    34  C   -0.094087
    35  C   -0.339519
    36  H    0.104326
    37  H    0.221094
    38  H    0.139150
    39  H    0.095698
    40  H    0.125931
 Sum of Mulliken charges =  -0.00000
 Mulliken charges with hydrogens summed into heavy atoms:
               1
     1  C    0.273141
     2  C    0.062325
     3  O   -0.671158
     4  C   -0.084201
    11  Br  -0.257112
    12  N   -0.377886
    13  C    0.244222
    14  C    0.037007
    20  C    0.223152
    21  C    0.051978
    27  C    0.190864
    28  C    0.055075
    34  C    0.231333
    35  C    0.021260
 APT charges:
               1
     1  C   -0.269284
     2  C   -0.540034
     3  O   -0.726363
     4  C   -0.977226
     5  H    0.366242
     6  H    0.274348
     7  H    0.315530
     8  H    0.182906
     9  H    0.519025
    10  H    0.322887
    11  Br  -0.211115
    12  N   -0.045068
    13  C   -0.445668
    14  C   -1.107134
    15  H    0.027720
    16  H    0.583524
    17  H    0.524908
    18  H    0.026994
    19  H    0.643599
    20  C   -1.066146
    21  C   -1.464220
    22  H    0.396570
    23  H    0.629862
    24  H    0.995222
    25  H    0.103948
    26  H    0.473613
    27  C   -1.079615
    28  C   -0.838360
    29  H    0.471685
    30  H    0.705572
    31  H    0.518846
    32  H   -0.044122
    33  H    0.426998
    34  C   -0.216520
    35  C   -1.178885
    36  H    0.392391
    37  H    0.057282
    38  H    0.267084
    39  H    0.683768
    40  H    0.299238
 Sum of APT charges =  -0.00000
 APT charges with hydrogens summed into heavy atoms:
               1
     1  C    0.053603
     2  C    0.100557
     3  O   -0.726363
     4  C    0.040234
    11  Br  -0.211115
    12  N   -0.045068
    13  C    0.165577
    14  C    0.088367
    20  C   -0.039714
    21  C    0.108563
    27  C    0.097641
    28  C    0.063363
    34  C    0.233152
    35  C    0.071205
 Electronic spatial extent (au):  <R**2>=           6636.4634
 Charge=             -0.0000 electrons
 Dipole moment (field-independent basis, Debye):
    X=              1.6267    Y=            -11.6540    Z=             -5.9367  Tot=             13.1798
 Quadrupole moment (field-independent basis, Debye-Ang):
   XX=           -100.6108   YY=            -91.2255   ZZ=            -99.8414
   XY=             -1.9908   XZ=             -1.0375   YZ=              3.8350
 Traceless Quadrupole moment (field-independent basis, Debye-Ang):
   XX=             -3.3849   YY=              6.0004   ZZ=             -2.6155
   XY=             -1.9908   XZ=             -1.0375   YZ=              3.8350
 Octapole moment (field-independent basis, Debye-Ang**2):
  XXX=              8.3162  YYY=             27.2397  ZZZ=             81.7530  XYY=              8.7716
  XXY=             46.0106  XXZ=             31.2261  XZZ=              6.4226  YZZ=             11.4928
[...]
 3913,0.00007877,0.00007946,-0.00084229,-0.00068736,0.00002968,-0.00006
 423,-0.00001779,-0.00349901,0.00045771,-0.00012327,0.00019657,0.000063
 63,0.00004277,-0.00031730,-0.00107392,0.00083714,-0.00011401,0.0001559
 1,-0.00011731,-0.00000060,0.00005056,0.00003124,0.00021274,-0.00025756
 ,-0.00001271,-0.00003022,-0.00015808,-0.00009056,0.08583713,-0.0747492
 1,0.02250605,0.00863356,-0.00220463,0.00213169,-0.07503079,0.08392079,
 -0.00012447,0.00031607,-0.00026730,0.00007616,-0.00000977,0.00001793,0
 .00017961,-0.00078548,-0.00124377,0.00001065,0.00000196,0.00000700,0.0
 0001231,0.00000089,-0.00002900,-0.00001053,-0.00000324,0.00002533,-0.0
 0000454,0.00000785,-0.00000698,-0.00001457,-0.00001326,0.00001455,0.00
 000276,-0.00001030,0.00000371,0.00004730,-0.00011568,-0.00006031,-0.00
 003496,-0.00004420,-0.00001660,0.00517390,-0.00050332,-0.00079035,0.00
 098276,0.00128712,-0.00053913,-0.00009651,0.00014074,-0.00009669,-0.00
 011497,0.00004830,0.00023349,0.00065421,-0.00011730,0.00014055,-0.0000
 3248,-0.00007465,0.00007088,0.00006148,-0.00014277,-0.00011609,0.00005
 453,0.00007687,0.00004282,-0.00080922,0.00010954,-0.00023240,-0.000382
 90,-0.00033817,0.00037271,0.00001474,0.00005733,0.00004222,0.00013941,
 -0.00013064,0.00002142,0.00015917,0.00020562,-0.00005449,0.00032344,-0
 .00056418,-0.00056610,0.00009263,0.00009481,-0.00002612,0.00302188,0.0
 0213347,-0.00017066,-0.00023845,0.00003397,0.00016195,0.00058982,0.001
 11488,-0.00003303,0.00010933,-0.00005438,-0.00027713,0.00001089,0.0000
 7241,-0.00004384,0.00020854,-0.00029010,-0.00008291,-0.00007425,-0.000
 13111,0.00007830,-0.06819268,0.02043428,-0.06737440,-0.03087155,0.0114
 3500,-0.01176148,0.07162180,-0.03313966,0.07669784,0.00016905,0.006533
 67,-0.00228822,0.00081491,0.00090476,0.00016316,-0.00502419,-0.0052602
 4,0.00146602,-0.00009194,-0.00046146,0.00005898,0.00014189,0.00001384,
 -0.00008167,-0.00004901,-0.00012009,0.00023624,-0.00003083,0.00011903,
 -0.00000359,-0.00011532,0.00025607,0.00011076,0.00015612,-0.00027880,0
 .00010662,0.00084786,-0.00199628,-0.00099426,-0.00029910,-0.00121196,-
 0.00046573,0.00274981,-0.02548290,-0.01507997,0.00205045,-0.00201304,-
 0.00118813,-0.00046096,0.00000614,0.00022190,-0.00232949,-0.00308269,0
 .00001322,-0.00022851,0.00045739,0.00029505,-0.00010774,0.00007999,-0.
 00005734,-0.00016727,-0.00005598,-0.00069307,0.00022951,0.00014136,0.0
 0023084,-0.00366338,-0.00347003,0.00306449,-0.00038544,0.00013989,0.00
 015336,0.00023063,0.00024829,-0.00001081,-0.00012553,-0.00155464,-0.00
 128308,0.00017451,0.00002292,-0.00004380,0.00011458,0.00012495,-0.0000
 1601,0.00003269,-0.00004781,0.00003988,-0.00039377,0.00092464,-0.00185
 739,-0.00021357,0.00076586,0.00032048,-0.00002573,0.00004116,0.0001905
 0,0.00006954,-0.00016576,0.00035666,-0.00009686,0.00022287,0.00010671,
 0.00123537,-0.00187798,0.00034223,-0.00009409,-0.00027474,0.00016915,-
 0.07989499,0.05978211,0.04423384,0.00170532,-0.00401373,-0.00095782,-0
 .00648846,0.01893285,0.01627520,0.08837646,-0.00005877,-0.00957689,0.0
 0000302,0.00017309,-0.00149422,-0.00129844,-0.00451451,0.00041096,0.00
 424398,0.00029667,0.00066073,-0.00012423,-0.00016776,0.00001591,0.0000
 6578,-0.00010393,-0.00027701,-0.00000212,-0.00009238,-0.00015558,0.000
 08327,0.00013697,-0.00036084,0.00005054,-0.00020159,0.00031042,-0.0001
 2262,-0.00098253,0.00235536,0.00108929,0.00016090,0.00142918,0.0005984
 4,0.00140472,-0.02488770,-0.01347135,-0.00053542,0.00010558,-0.0014294
 9,0.00020985,-0.00004200,-0.00029133,-0.00005542,0.00323106,0.00169201
 ,0.00081750,-0.00002100,-0.00006408,0.00017693,0.00009362,0.00004134,-
 0.00009093,0.00029459,0.00051598,-0.00011238,-0.00019621,-0.00005132,-
 0.00144347,-0.00148112,0.00179476,-0.00032651,-0.00003992,0.00024455,-
 0.00031379,-0.00006495,-0.00000403,0.00013440,-0.00019164,-0.00054128,
 0.00016063,0.00009994,-0.00001138,0.00047254,-0.00020119,-0.00009123,0
 .00006896,0.00007491,-0.00007279,0.00033444,-0.00095228,0.00069942,0.0
 0027750,-0.00094748,0.00018526,0.00010412,-0.00033511,0.00012440,0.000
 02044,0.00012540,-0.00015774,0.00007232,-0.00003317,-0.00014693,-0.001
 19320,0.00238009,0.00081282,0.00016797,0.00027902,-0.00020352,0.046566
 67,-0.17118133,-0.09293831,-0.00526546,0.01396986,0.00799087,0.0016067
 1,-0.00135961,-0.00209251,-0.03825161,0.18787970,-0.00289960,-0.008597
 98,0.00062789,-0.00004896,-0.00164109,-0.00092047,0.00035407,0.0076245
 9,-0.00564383,-0.00027589,0.00083174,0.00092749,-0.00007994,-0.0000080
 3,-0.00006100,0.00009696,-0.00007527,-0.00006089,-0.00007707,-0.000136
 70,0.00006229,0.00034183,-0.00001900,-0.00021264,-0.00019234,0.0003975
 6,-0.00038782,-0.00100958,0.00230357,0.00115527,0.00016312,0.00145617,
 0.00057097,-0.00276603,0.00666104,0.00589386,-0.00166730,0.00042447,0.
 00036193,0.00045782,-0.00049408,-0.00036548,0.00148530,0.00317835,0.00
 145404,0.00058192,-0.00006957,-0.00017923,0.00023616,0.00012252,0.0001
 1442,-0.00045244,0.00029556,0.00017987,-0.00015159,-0.00003399,-0.0001
 6421,0.00155929,0.00160296,-0.00140524,0.00015004,-0.00013933,0.000377
 64,-0.00002726,-0.00003499,0.00001744,0.00021907,0.00082097,0.00069164
 ,0.00008471,0.00017331,-0.00000435,0.00024245,-0.00015459,-0.00038634,
 -0.00000416,0.00003871,-0.00005856,0.00018429,-0.00013786,0.00226437,0
 .00027668,-0.00022105,-0.00012907,0.00025008,-0.00027175,0.00005101,0.
 00007400,0.00001090,-0.00050950,0.00006630,-0.00033179,-0.00008319,0.0
 0007227,0.00316897,-0.00300912,0.00003088,-0.00010620,-0.00021508,0.03
 845141,-0.09864374,-0.13786543,0.01013396,-0.01751079,-0.01969668,-0.0
 0411411,0.01140119,0.00922803,-0.04142606,0.08686658,0.14751603,0.0000
 8688,-0.00015351,0.00008271,-0.00007363,0.00004171,0.00008828,0.000047
 14,0.00051881,-0.00012754,-0.00024460,-0.00004005,0.00021369,0.0000051
 5,-0.00000208,-0.00003591,0.00005852,0.00000465,0.00000098,0.00005997,
 0.00000433,-0.00002760,0.00008231,0.00007744,-0.00010654,0.00005817,0.
 00001107,-0.00006194,-0.00000964,0.00003895,-0.00005478,0.00000161,-0.
 00000655,-0.00003221,0.00150029,0.00086909,-0.00008094,0.00001959,0.00
 034572,-0.00027472,-0.00063327,0.00039005,0.00014669,-0.00002797,-0.00
 021029,-0.00006680,0.00005233,-0.00004808,0.00003834,-0.00010873,-0.00
 020578,0.00016650,-0.00013953,-0.00053303,-0.00004594,0.00015818,0.000
 18361,0.00003787,-0.00005832,0.00017130,-0.00019778,-0.00004986,-0.000
 01733,0.00004674,-0.00010731,0.00018358,0.00017378,0.00002263,-0.00002
 271,-0.00000394,0.00000384,0.00000467,0.00000296,0.00013983,0.00004968
 ,0.00001398,0.00007723,0.00002486,-0.00001180,-0.00009445,-0.00008303,
 -0.00018394,0.00000424,0.00003348,0.00000099,-0.00000237,0.00000939,0.
 00001345,-0.00000122,-0.00001251,0.00003489,-0.00000033,0.00000801,0.0
 0000839,0.00003487,-0.00010125,0.00001135,-0.00000364,0.00000047,0.000
 00190,-0.00179701,-0.00054448,-0.00013442,-0.14284259,-0.13179535,0.00
 145507,0.00034129,0.00011847,0.00024804,0.00018542,-0.00021043,0.00004
 361,0.15049622,-0.00008833,-0.00007813,0.00004731,0.00000964,-0.000033
 25,-0.00001690,0.00002511,0.00013082,0.00005646,0.00004503,-0.00000351
 ,-0.00005236,-0.00000770,-0.00000287,0.00001341,-0.00000703,0.00002895
 ,-0.00000051,-0.00000316,-0.00000220,0.00001287,-0.00003434,0.00001583
 ,0.00001635,-0.00000821,0.00000335,0.00000320,-0.00000059,0.00002737,0
 .00002349,0.00001277,0.00002111,0.00001351,0.00101094,0.00055349,0.001
 52869,0.00021222,-0.00013637,0.00009868,0.00015242,-0.00007595,-0.0000
 5672,-0.00005714,-0.00002947,-0.00001326,-0.00004749,0.00003098,-0.000
 00537,0.00003593,0.00006348,-0.00005388,0.00001780,0.00009774,0.000001
 07,0.00000286,-0.00004751,-0.00000287,-0.00013519,0.00031446,-0.000212
 91,-0.00000285,0.00001359,0.00008766,0.00030456,-0.00022473,0.00027660
 ,0.00005550,-0.00004924,0.00018937,-0.00000005,-0.00000236,-0.00000634
 ,-0.00023493,-0.00005776,-0.00003269,-0.00002798,-0.00007064,0.0000268
 0,-0.00045537,-0.00025611,-0.00010368,0.00005260,0.00000755,-0.0000054
 4,0.00000623,-0.00004341,-0.00000766,0.00007791,-0.00003900,0.00016568
 ,-0.00000754,-0.00000541,0.00003096,-0.00000927,-0.00001571,0.00000510
 ,0.00000101,0.00001110,0.00000538,-0.00664762,-0.00916643,0.00020711,-
 0.13168054,-0.22788023,0.00134728,0.00040219,0.00004975,-0.00026005,0.
 00010991,0.00059407,-0.00023403,0.14347648,0.24360238,0.00000599,-0.00
 004379,-0.00000094,0.00012149,-0.00009327,-0.00016874,-0.00025737,-0.0
 0033725,0.00017351,0.00005915,0.00000926,-0.00009964,-0.00001070,0.000
 00968,0.00001301,-0.00004852,-0.00002703,0.00005314,-0.00003382,-0.000
 00708,0.00001205,-0.00000638,-0.00002769,0.00005319,-0.00001863,0.0000
 0513,0.00002215,-0.00004515,0.00001947,0.00002792,-0.00003300,0.000061
 85,0.00004443,0.00006305,0.00345780,-0.00729468,-0.00078920,0.00032553
 ,0.00004444,-0.00006014,-0.00003429,-0.00008754,0.00011250,0.00018755,
 0.00009797,0.00022899,-0.00004105,-0.00002067,0.00001036,-0.00004142,0
 .00012379,0.00003430,-0.00010671,0.00003511,0.00005341,0.00005540,0.00
 006164,-0.00067798,-0.00121384,-0.00130630,0.00007747,0.00009772,0.000
 21028,0.00032726,-0.00013147,0.00034844,0.00008513,-0.00000197,0.00026
 975,-0.00006425,0.00005749,0.00000211,-0.00012829,-0.00002272,-0.00005
 475,0.00000661,-0.00007128,0.00000787,0.00136674,0.00101779,0.00061256
 ,-0.00010034,-0.00002353,0.00003431,-0.00009739,0.00002773,-0.00001021
 ,-0.00020096,0.00033304,-0.00054654,0.00002342,-0.00001382,-0.00005611
 ,-0.00000135,0.00011517,-0.00004866,0.00000150,-0.00002089,-0.00000645
 ,0.01971733,0.02446743,-0.00003824,0.00040314,0.00053012,-0.04664755,-
 0.00061282,0.00004799,0.00120564,0.00060203,-0.00005465,0.00113649,-0.
 00119407,-0.00291838,0.05209124,-0.00006429,-0.00001441,-0.00009941,-0
 .00000691,-0.00003251,0.00001238,0.00006700,-0.00008433,0.00014600,0.0
 0003331,0.00001871,-0.00001300,0.00000984,0.00000180,0.00000128,0.0000
 0315,0.00001151,0.00000208,0.00003656,-0.00000126,-0.00001335,-0.00005
 767,-0.00003543,0.00001054,-0.00000867,0.00000772,0.00002897,0.0000022
 3,-0.00000313,0.00001863,0.00000928,0.00001546,0.00000905,-0.00007208,
 0.00088170,0.00030607,-0.00030041,0.00009113,-0.00017219,-0.00029755,0
 .00060614,0.00022312,0.00004401,0.00003111,-0.00002958,0.00004435,-0.0
 0009012,0.00004412,-0.00012118,-0.00027874,0.00004370,0.00016021,-0.00
 044273,-0.00001037,-0.00008122,-0.00007387,-0.00007396,0.00016152,-0.0
 0023714,0.00088041,0.00015406,0.00023706,-0.00040784,-0.00123287,-0.00
 089341,0.00027400,-0.00007838,0.00019578,-0.00020138,0.00001603,-0.000
 07110,0.00001991,0.00015452,0.00050889,-0.00021410,-0.00008109,0.00009
 722,-0.00002834,0.00014460,-0.00019366,-0.00000859,-0.00005112,-0.0000
 1750,-0.00004191,-0.00001408,0.00003643,0.00001804,-0.00003708,-0.0000
 2891,0.00001511,0.00001557,-0.00000447,-0.00002728,-0.00000435,0.00004
 986,-0.00003479,0.00000182,0.00000284,-0.00001159,-0.00055506,-0.00148
 478,-0.00012976,-0.09247506,0.07229417,0.06570713,0.00047037,-0.000783
 35,-0.00018227,0.00100495,0.00021579,-0.00014517,0.00873331,-0.0126679
 4,-0.01342241,0.09361711,-0.00002705,-0.00005732,0.00012952,-0.0000491
 8,0.00006647,0.00007061,-0.00014010,0.00027989,-0.00009676,-0.00010314
 ,-0.00002676,0.00010671,0.00000282,-0.00000533,-0.00002391,0.00003705,
 0.00000883,0.00000323,0.00000900,0.00000511,-0.00000966,0.00004311,0.0
 0005472,-0.00006223,0.00003060,-0.00000648,-0.00004828,-0.00000127,0.0
 0004270,-0.00002771,0.00000164,-0.00004702,-0.00003851,0.00000597,0.00
 103403,-0.00059250,-0.00011761,0.00001520,0.00006689,0.00007559,-0.000
 20445,-0.00003725,0.00003705,-0.00002105,0.00001051,0.00000139,0.00000
 751,-0.00003010,0.00002262,0.00006353,-0.00002128,-0.00005762,0.000093
 68,0.00000479,0.00001011,0.00002108,-0.00000072,-0.00124741,-0.0009486
 0,0.00018352,-0.00009675,-0.00072962,0.00052202,-0.00064386,-0.0011376
 9,0.00062261,0.00013615,0.00006605,0.00012890,-0.00004302,-0.00006898,
 -0.00006664,0.00036144,-0.00081142,0.00056551,0.00001414,0.00004903,-0
 .00000411,0.00021463,0.00013500,0.00010237,-0.00002095,0.00004739,0.00
 000575,0.00002474,0.00000898,0.00000312,-0.00001521,0.00007366,-0.0000
 9247,0.00000131,0.00000407,-0.00001167,0.00001991,-0.00004209,0.,0.000
 00044,-0.00002174,0.00000454,-0.00631679,0.00993309,0.00836419,0.07206
 261,-0.16885673,-0.11310284,-0.00012746,0.00030127,-0.00099523,0.00026
 645,-0.00040248,0.00223796,0.01207255,-0.01676753,-0.01598748,-0.07789
 479,0.18397515,0.00019019,0.00076288,-0.00011765,-0.00000364,0.0001781
 3,0.00009954,0.00101613,-0.00163030,-0.00083272,0.00004183,-0.00007008
 ,-0.00005375,0.00001210,-0.00000247,0.00001080,0.00000092,0.00001180,-
 0.00000803,0.00001323,0.00001681,-0.00000617,-0.00004910,0.00000841,0.
 00001744,0.00001589,-0.00004202,0.00003660,0.00011850,-0.00023919,-0.0
 0010748,-0.00001004,-0.00017261,-0.00006622,-0.00047783,-0.00060802,0.
 00096679,-0.00017974,0.00014428,0.00009756,-0.00008124,0.00000497,-0.0
 0003369,-0.00022512,-0.00020387,-0.00002535,0.00011065,0.00006557,0.00
 001170,-0.00001801,-0.00002445,0.00004639,0.00007119,-0.00002119,-0.00
 008835,0.00005416,0.00001508,0.00008099,0.00054965,-0.00022374,-0.0007
 0771,0.00056973,0.00035719,0.00048132,0.00059437,0.00015752,0.00045862
 ,-0.00005813,0.00007201,0.00047641,-0.00013478,-0.00006534,-0.00002421
 ,-0.00091280,0.00053911,-0.00026035,-0.00026356,-0.00039007,0.00003166
 ,0.00003868,-0.00033418,0.00019379,0.00005777,0.00002232,-0.00004701,-
 0.00004747,-0.00007738,-0.00005952,0.00006510,0.00015424,0.00001554,-0
 .00001126,0.00003572,-0.00001179,-0.00001457,-0.00005593,0.00021312,0.
 00001195,0.00007564,-0.00001405,0.01186667,-0.02383202,-0.02131207,0.0
 6553970,-0.11195817,-0.15628063,-0.00024422,0.00020640,0.00148020,-0.0
 0193827,0.00577693,-0.00300859,-0.00085928,0.00042492,0.00015507,-0.07
 220960,0.12266768,0.17029614,-0.00006446,0.00021298,-0.00007845,0.0000
 0682,0.00002691,0.00001561,0.00011204,-0.00040832,-0.00009261,0.000134
 95,0.00001813,-0.00007498,0.00000591,-0.00000160,0.00001507,-0.0000169
 6,0.00000716,-0.00001110,-0.00002943,0.00000309,0.00001715,-0.00005610
 ,-0.00004711,0.00003427,-0.00002694,-0.00001360,0.00003088,0.00003060,
 -0.00005613,0.00000498,0.00000525,-0.00004576,-0.00000620,0.00053015,-
 0.00003544,-0.00076134,0.00038806,0.00034013,-0.00002416,-0.00306111,-
 0.00004205,0.00112463,-0.00001206,0.00009274,0.00005307,-0.00001506,0.
 00004037,-0.00006889,-0.00029147,-0.00033744,0.00019674,-0.00262344,-0
 .00076858,0.00165041,0.00005459,0.00017453,-0.00001865,-0.00012884,-0.
 00008193,-0.00046294,-0.00006940,-0.00012924,0.00013271,0.00014398,-0.
 00002798,0.00016343,0.00005488,-0.00000992,0.00007107,0.00000242,0.000
 03632,0.00000032,0.00008400,-0.00007900,0.00001852,0.00009345,-0.00000
 081,-0.00001210,0.00013762,0.00005686,0.00014770,-0.00000335,-0.000005
 48,0.00001079,-0.00002994,-0.00002213,0.00001212,-0.00001813,0.0000145
 4,-0.00006114,-0.00000504,-0.00000172,-0.00000594,-0.00000955,0.000022
 13,0.00001352,0.00000425,-0.00000002,0.00000171,0.00430708,-0.00160234
 ,0.00093393,-0.27669521,0.07401528,-0.08498780,0.00134213,-0.00032952,
 0.00111378,-0.00000291,0.00034098,-0.00021870,-0.01597460,0.00611216,-
 0.00549713,-0.00934472,0.00145088,-0.00319974,0.30104053,-0.00015130,0
 .00002779,0.00003402,0.00000917,-0.00003493,-0.00001153,-0.00016790,-0
 .00015909,0.00017952,0.00019575,0.00003823,-0.00011054,0.00000667,0.00
 000119,0.00001209,-0.00001726,0.00000699,-0.00000601,-0.00001901,0.000
 00307,-0.00000532,-0.00010393,-0.00004359,0.00006472,-0.00004361,-0.00
 000411,0.00004459,0.00000815,0.00002164,0.00006671,0.00000656,-0.00000
 264,0.00001189,0.00060405,0.00063231,-0.00069650,0.00000164,-0.0004093
 2,0.00028083,0.00039220,-0.00008076,0.00015269,0.00003484,0.00029511,0
 .00008248,0.00003072,0.00003114,-0.00006306,0.00012349,0.00022906,-0.0
 0029209,0.00028563,0.00104384,-0.00007125,-0.00041039,-0.00043552,-0.0
 0007474,0.00063663,-0.00012329,0.00025698,0.00037444,-0.00004352,0.000
 06346,-0.00003056,-0.00077876,-0.00007545,-0.00012085,0.00008765,-0.00
 013844,-0.00002903,-0.00001734,-0.00000416,-0.00033988,0.00011292,-0.0
 0001632,-0.00020476,-0.00010485,0.00001942,0.00018169,-0.00018245,0.00
 027472,-0.00005170,-0.00001133,-0.00005212,-0.00013627,0.00004949,-0.0
 0004645,-0.00010492,-0.00002334,-0.00001146,-0.00000026,-0.00000548,-0
 .00003117,0.00000760,0.00007215,-0.00003277,-0.00000779,-0.00001324,0.
 00001917,0.00961932,-0.00424668,0.00476741,0.07347260,-0.07123788,0.02
 500733,-0.00003663,0.00024523,0.00224491,-0.00047443,-0.00010868,-0.00
 075530,-0.02465193,0.00942181,-0.00960653,0.02003031,-0.00613115,0.008
 25340,-0.07891907,0.07187835,-0.00002397,0.00006611,-0.00018137,-0.000
 01608,-0.00003244,0.00001036,0.00053143,-0.00034299,0.00022423,0.00005
 833,0.00003751,-0.00008951,0.00001015,0.00000232,0.00002910,-0.0000122
 4,0.00001247,-0.00002170,0.00007824,-0.00000895,-0.00001257,-0.0000889
 1,-0.00008112,0.00005223,-0.00001261,0.00001478,0.00007580,0.00002855,
 -0.00004609,0.00002530,0.00002809,0.00002796,0.00002384,0.00033136,-0.
 00013069,0.00138976,-0.00035241,0.00065953,-0.00053686,-0.00007432,0.0
 0124544,0.00003871,-0.00004110,-0.00003105,-0.00013061,0.00021563,-0.0
 0019422,0.00009413,-0.00019072,-0.00046933,0.00022330,0.00145995,-0.00
 077087,-0.00007455,-0.00002556,-0.00018455,0.00005506,0.00035487,0.000
 09604,-0.00017650,0.00020684,-0.00009600,0.00025814,-0.00002829,0.0002
 5656,0.00016302,-0.00000948,0.00010218,0.00009158,0.00003109,0.0000338
 2,0.00000220,-0.00010975,0.00002269,-0.00017145,-0.00006272,-0.0001499
 2,0.00000939,-0.00019891,0.00008923,-0.00009349,0.00006553,-0.00005148
 ,0.00003894,0.00027398,-0.00018967,0.00004057,0.00020970,0.00006732,-0
 .00002976,0.00001015,-0.00001684,0.00001076,-0.00011543,0.00014407,0.0
 0003816,0.00003454,0.00004232,-0.00005207,-0.03136662,0.00686222,-0.00
 916666,-0.08187036,0.02542190,-0.08120457,0.00083736,0.00218674,-0.006
 05578,-0.00037209,0.00029008,0.00173607,0.00066996,-0.00059886,-0.0004
 4908,0.01971635,-0.00455109,0.00789567,0.08981949,-0.02973512,0.085920
 20\\0.00000009,-0.00000033,0.00000017,0.00000024,0.00000025,-0.0000003
 5,0.00000026,0.,0.00000011,-0.00000055,-0.00000025,0.00000057,0.000000
 75,0.00000023,-0.00000049,-0.00000014,0.00000028,-0.00000070,-0.000000
 53,-0.00000044,0.00000099,-0.00000091,-0.00000015,0.00000023,-0.000000
 63,-0.00000031,0.00000065,0.00000055,-0.00000021,0.00000062,0.00000018
 ,0.00000015,-0.00000022,0.00000016,0.00000002,-0.00000003,0.00000019,-
 0.00000027,0.00000058,-0.00000050,-0.00000044,0.00000093,0.00000039,-0
 .00000027,0.00000063,0.00000050,-0.00000035,0.00000085,-0.00000036,-0.
 00000065,0.00000142,-0.00000079,-0.00000039,0.00000078,-0.00000078,-0.
 00000046,0.00000098,-0.00000018,0.00000005,0.00000001,-0.00000014,0.00
 000027,-0.00000062,-0.00000068,-0.00000009,0.00000012,0.00000010,-0.00
 000015,0.00000033,-0.00000042,0.00000023,-0.00000057,-0.00000036,0.000
 00043,-0.00000100,0.00000037,0.00000034,-0.00000074,0.00000083,0.00000
 017,-0.00000033,0.00000129,0.00000014,-0.00000013,0.00000082,0.0000003
 5,-0.00000071,0.00000106,0.00000004,0.,0.00000169,0.00000028,-0.000000
 47,0.00000099,0.00000014,-0.00000020,0.00000151,-0.00000007,0.00000031
 ,-0.00000025,0.00000015,-0.00000045,-0.00000099,0.00000017,-0.00000049
 ,-0.00000005,0.00000042,-0.00000092,-0.00000009,0.00000017,-0.00000032
 ,-0.00000118,0.00000031,-0.00000081,-0.00000118,0.00000026,-0.00000068
 ,-0.00000123,-0.00000002,-0.00000006\\\@


 WE HAVE LEARNED THAT NOTHING IS SIMPLE AND
 RATIONAL EXCEPT WHAT WE OURSELVES HAVE INVENTED;
 THAT GOD THINKS IN TERMS NEITHER OF EUCLID OR RIEMANN; THAT SCIENCE HAS "EXPLAINED" NOTHING;
 THAT THE MORE WE KNOW THE MORE FANTASTIC THE WORLD BECOMES
 AND THE PROFOUNDER THE SURROUNDING DARKNESS.
   --  ALDOUS HUXLEY
 Job cpu time:       0 days  2 hours 17 minutes 57.9 seconds.
 Elapsed time:       0 days  0 hours  2 minutes 11.7 seconds.
 File lengths (MBytes):  RWF=    615 Int=      0 D2E=      0 Chk=     12 Scr=      2
 Normal termination of Gaussian 16 at Tue Mar 14 11:09:23 2023.
