 Entering Gaussian System, Link 0=g16
 Input=4_test_opt_freq_from_IRC_re.com
 Output=4_test_opt_freq_from_IRC_re.log
 Initial command:
 /opt/ohpc/pub/apps/gaussian/avx2/g16/l1.exe "/scratch/g16-tmp/Gau-2301452.inp" -scrdir="/scratch/g16-tmp/"
 Entering Link 1 = /opt/ohpc/pub/apps/gaussian/avx2/g16/l1.exe PID=   2301453.
  
 Copyright (c) 1988-2017, Gaussian, Inc.  All Rights Reserved.
  
 This is part of the Gaussian(R) 16 program.  It is based on
 the Gaussian(R) 09 system (copyright 2009, Gaussian, Inc.),
 the Gaussian(R) 03 system (copyright 2003, Gaussian, Inc.),
 the Gaussian(R) 98 system (copyright 1998, Gaussian, Inc.),
 the Gaussian(R) 94 system (copyright 1995, Gaussian, Inc.),
 the Gaussian 92(TM) system (copyright 1992, Gaussian, Inc.),
 the Gaussian 90(TM) system (copyright 1990, Gaussian, Inc.),
 the Gaussian 88(TM) system (copyright 1988, Gaussian, Inc.),
 the Gaussian 86(TM) system (copyright 1986, Carnegie Mellon
 University), and the Gaussian 82(TM) system (copyright 1983,
 Carnegie Mellon University). Gaussian is a federally registered
 trademark of Gaussian, Inc.
  
 This software contains proprietary and confidential information,
 including trade secrets, belonging to Gaussian, Inc.
  
 This software is provided under written license and may be
 used, copied, transmitted, or stored only in accord with that
 written license.
  
 The following legend is applicable only to US Government
 contracts under FAR:
  
                    RESTRICTED RIGHTS LEGEND
  
 Use, reproduction and disclosure by the US Government is
 subject to restrictions as set forth in subparagraphs (a)
 and (c) of the Commercial Computer Software - Restricted
 Rights clause in FAR 52.227-19.
  
 Gaussian, Inc.
 340 Quinnipiac St., Bldg. 40, Wallingford CT 06492
  
  
 ---------------------------------------------------------------
 Warning -- This program may not be used in any manner that
 competes with the business of Gaussian, Inc. or will provide
 assistance to any competitor of Gaussian, Inc.  The licensee
 of this program is prohibited from giving any competitor of
 Gaussian, Inc. access to this program.  By using this program,
 the user acknowledges that Gaussian, Inc. is engaged in the
 business of creating and licensing software in the field of
 computational chemistry and represents and warrants to the
 licensee that it is not a competitor of Gaussian, Inc. and that
 it will not use this program in any manner prohibited above.
 ---------------------------------------------------------------
  

 Cite this work as:
 Gaussian 16, Revision B.01,
 M. J. Frisch, G. W. Trucks, H. B. Schlegel, G. E. Scuseria, 
 M. A. Robb, J. R. Cheeseman, G. Scalmani, V. Barone, 
 G. A. Petersson, H. Nakatsuji, X. Li, M. Caricato, A. V. Marenich, 
 J. Bloino, B. G. Janesko, R. Gomperts, B. Mennucci, H. P. Hratchian, 
 J. V. Ortiz, A. F. Izmaylov, J. L. Sonnenberg, D. Williams-Young, 
 F. Ding, F. Lipparini, F. Egidi, J. Goings, B. Peng, A. Petrone, 
 T. Henderson, D. Ranasinghe, V. G. Zakrzewski, J. Gao, N. Rega, 
 G. Zheng, W. Liang, M. Hada, M. Ehara, K. Toyota, R. Fukuda, 
 J. Hasegawa, M. Ishida, T. Nakajima, Y. Honda, O. Kitao, H. Nakai, 
 T. Vreven, K. Throssell, J. A. Montgomery, Jr., J. E. Peralta, 
 F. Ogliaro, M. J. Bearpark, J. J. Heyd, E. N. Brothers, K. N. Kudin, 
 V. N. Staroverov, T. A. Keith, R. Kobayashi, J. Normand, 
 K. Raghavachari, A. P. Rendell, J. C. Burant, S. S. Iyengar, 
 J. Tomasi, M. Cossi, J. M. Millam, M. Klene, C. Adamo, R. Cammi, 
 J. W. Ochterski, R. L. Martin, K. Morokuma, O. Farkas, 
 J. B. Foresman, and D. J. Fox, Gaussian, Inc., Wallingford CT, 2016.
 
 ******************************************
 Gaussian 16:  ES64L-G16RevB.01 20-Dec-2017
                13-Mar-2023 
 ******************************************
 %nprocshared=64
 Will use up to   64 processors via shared memory.
 %mem=64GB
 %chk=4_test_opt_freq_from_IRC_re.chk
 ------------------------------------------------------------------
 # opt=(calcfc,tight) freq cam-b3lyp/gen nosymm pseudo=read scf=xqc
 ------------------------------------------------------------------
 1/7=10,10=4,18=20,19=15,26=3,38=1/1,3;
 2/9=110,12=2,15=1,17=6,18=5,40=1/2;
 3/5=7,11=2,16=1,17=8,25=1,30=1,71=2,74=-40,140=1/1,2,3;
 4//1;
 5/5=2,8=3,13=1,38=5/2,8;
 8/6=4,10=90,11=11/1;
 11/6=1,8=1,9=11,15=111,16=1,31=1/1,2,10;
 10/6=1,13=1,31=1/2;
 6/7=2,8=2,9=2,10=2,28=1/1;
 7/10=1,18=20,25=1,30=1/1,2,3,16;
 1/7=10,10=4,18=20,19=15,26=3/3(2);
 2/9=110,15=1/2;
 99//99;
 2/9=110,15=1/2;
 3/5=7,6=1,11=2,16=1,17=8,25=1,30=1,71=1,74=-40,82=7/1,2,3;
 4/5=5,16=3,69=1/1;
 5/5=2,8=3,13=1,38=5/2,8;
 7/30=1/1,2,3,16;
 1/7=10,18=20,19=15,26=3/3(-5);
 2/9=110,15=1/2;
 6/7=2,8=2,9=2,10=2,19=2,28=1/1;
 99/9=1/99;
 ---------------------------
 4_test_opt_freq_from_IRC_re
 ---------------------------
 Symbolic Z-matrix:
 Charge =  0 Multiplicity = 1
 C                     1.20511   1.31642   0.78966 
 C                     1.73379   2.19192  -0.34681 
 O                     0.03607   0.61028   0.37678 
 C                     0.99004   2.07876   2.0893 
 H                     1.67663   1.65964  -1.2944 
 H                     1.20929   3.13751  -0.41756 
 H                     0.66604   1.39109   2.87558 
 H                     0.22332   2.83998   1.94424 
 H                     1.92059   2.5543    2.40908 
 H                     1.94122   0.52263   0.9577 
 Br                    3.64169   2.60586  -0.08324 
 C                    -1.12049   1.36631  -0.04664 
 O                    -2.07198   0.60186  -0.31028 
 O                    -1.00602   2.58605  -0.10185 
 N                    -2.13474  -2.84729  -0.05556 
 C                    -3.35573  -1.95025   0.16785 
 C                    -4.42796  -1.95625  -0.90991 
 H                    -2.95182  -0.93781   0.28403 
 H                    -3.79335  -2.30006   1.10594 
 H                    -5.1584   -1.19957  -0.61363 
 H                    -4.05446  -1.66344  -1.88917 
 H                    -4.96028  -2.90637  -0.99744 
 C                    -2.5823   -4.16133  -0.64459 
 C                    -1.51784  -5.23623  -0.79656 
 H                    -3.0167   -3.93395  -1.61588 
 H                    -3.38973  -4.51692   0.00036 
 H                    -1.99758  -6.11333  -1.23764 
 H                    -0.7118   -4.93816  -1.46885 
 H                    -1.08541  -5.54859   0.15511 
 C                    -1.50907  -3.10878   1.30503 
 C                    -1.28516  -1.88278   2.1778 
 H                    -0.55928  -3.60712   1.10989 
 H                    -2.16797  -3.82409   1.80525 
 H                    -0.69065  -2.20432   3.03716 
 H                    -0.74624  -1.08055   1.66759 
 H                    -2.21985  -1.47182   2.56001 
 C                    -1.06535  -2.18161  -0.91668 
 C                    -1.48669  -1.73111  -2.30137 
 H                    -0.25247  -2.90767  -0.9659 
 H                    -0.73006  -1.30009  -0.37109 
 H                    -0.57326  -1.43889  -2.82596 
 H                    -1.97106  -2.50503  -2.90312 
 H                    -2.10752  -0.83848  -2.22795 
 
 Add virtual bond connecting atoms H18        and O13        Dist= 3.53D+00.

 GradGradGradGradGradGradGradGradGradGradGradGradGradGradGradGradGradGrad
 Berny optimization.
 Initialization pass.
                           ----------------------------
                           !    Initial Parameters    !
                           ! (Angstroms and Degrees)  !
 --------------------------                            --------------------------
 ! Name  Definition              Value          Derivative Info.                !
 --------------------------------------------------------------------------------
 ! R1    R(1,2)                  1.5289         calculate D2E/DX2 analytically  !
 ! R2    R(1,3)                  1.4268         calculate D2E/DX2 analytically  !
 ! R3    R(1,4)                  1.522          calculate D2E/DX2 analytically  !
 ! R4    R(1,10)                 1.0955         calculate D2E/DX2 analytically  !
 ! R5    R(2,5)                  1.0884         calculate D2E/DX2 analytically  !
 ! R6    R(2,6)                  1.0836         calculate D2E/DX2 analytically  !
 ! R7    R(2,11)                 1.97           calculate D2E/DX2 analytically  !
 ! R8    R(3,12)                 1.4452         calculate D2E/DX2 analytically  !
 ! R9    R(4,7)                  1.0937         calculate D2E/DX2 analytically  !
 ! R10   R(4,8)                  1.0901         calculate D2E/DX2 analytically  !
 ! R11   R(4,9)                  1.0929         calculate D2E/DX2 analytically  !
 ! R12   R(12,13)                1.2487         calculate D2E/DX2 analytically  !
 ! R13   R(12,14)                1.2263         calculate D2E/DX2 analytically  !
 ! R14   R(13,18)                1.8703         calculate D2E/DX2 analytically  !
 ! R15   R(15,16)                1.5315         calculate D2E/DX2 analytically  !
 ! R16   R(15,23)                1.508          calculate D2E/DX2 analytically  !
 ! R17   R(15,30)                1.5202         calculate D2E/DX2 analytically  !
 ! R18   R(15,37)                1.5259         calculate D2E/DX2 analytically  !
 ! R19   R(16,17)                1.5203         calculate D2E/DX2 analytically  !
 ! R20   R(16,18)                1.0962         calculate D2E/DX2 analytically  !
 ! R21   R(16,19)                1.0926         calculate D2E/DX2 analytically  !
 ! R22   R(17,20)                1.0926         calculate D2E/DX2 analytically  !
 ! R23   R(17,21)                1.0882         calculate D2E/DX2 analytically  !
 ! R24   R(17,22)                1.0926         calculate D2E/DX2 analytically  !
 ! R25   R(23,24)                1.5204         calculate D2E/DX2 analytically  !
 ! R26   R(23,25)                1.088          calculate D2E/DX2 analytically  !
 ! R27   R(23,26)                1.0929         calculate D2E/DX2 analytically  !
 ! R28   R(24,27)                1.0927         calculate D2E/DX2 analytically  !
 ! R29   R(24,28)                1.0911         calculate D2E/DX2 analytically  !
 ! R30   R(24,29)                1.091          calculate D2E/DX2 analytically  !
 ! R31   R(30,31)                1.5215         calculate D2E/DX2 analytically  !
 ! R32   R(30,32)                1.0902         calculate D2E/DX2 analytically  !
 ! R33   R(30,33)                1.0936         calculate D2E/DX2 analytically  !
 ! R34   R(31,34)                1.0933         calculate D2E/DX2 analytically  !
 ! R35   R(31,35)                1.0929         calculate D2E/DX2 analytically  !
 ! R36   R(31,36)                1.0902         calculate D2E/DX2 analytically  !
 ! R37   R(37,38)                1.5159         calculate D2E/DX2 analytically  !
 ! R38   R(37,39)                1.091          calculate D2E/DX2 analytically  !
 ! R39   R(37,40)                1.0896         calculate D2E/DX2 analytically  !
 ! R40   R(38,41)                1.0931         calculate D2E/DX2 analytically  !
 ! R41   R(38,42)                1.0935         calculate D2E/DX2 analytically  !
 ! R42   R(38,43)                1.0898         calculate D2E/DX2 analytically  !
 ! A1    A(2,1,3)              110.5868         calculate D2E/DX2 analytically  !
 ! A2    A(2,1,4)              113.376          calculate D2E/DX2 analytically  !
 ! A3    A(2,1,10)             107.2528         calculate D2E/DX2 analytically  !
 ! A4    A(3,1,4)              112.2846         calculate D2E/DX2 analytically  !
 ! A5    A(3,1,10)             103.6694         calculate D2E/DX2 analytically  !
 ! A6    A(4,1,10)             109.0803         calculate D2E/DX2 analytically  !
 ! A7    A(1,2,5)              110.4237         calculate D2E/DX2 analytically  !
 ! A8    A(1,2,6)              112.3862         calculate D2E/DX2 analytically  !
 ! A9    A(1,2,11)             110.84           calculate D2E/DX2 analytically  !
 ! A10   A(5,2,6)              110.1517         calculate D2E/DX2 analytically  !
 ! A11   A(5,2,11)             105.671          calculate D2E/DX2 analytically  !
 ! A12   A(6,2,11)             107.1065         calculate D2E/DX2 analytically  !
 ! A13   A(1,3,12)             118.7893         calculate D2E/DX2 analytically  !
 ! A14   A(1,4,7)              109.9273         calculate D2E/DX2 analytically  !
 ! A15   A(1,4,8)              109.6043         calculate D2E/DX2 analytically  !
 ! A16   A(1,4,9)              110.334          calculate D2E/DX2 analytically  !
 ! A17   A(7,4,8)              109.0489         calculate D2E/DX2 analytically  !
 ! A18   A(7,4,9)              108.3902         calculate D2E/DX2 analytically  !
 ! A19   A(8,4,9)              109.5094         calculate D2E/DX2 analytically  !
 ! A20   A(3,12,13)            110.5735         calculate D2E/DX2 analytically  !
 ! A21   A(3,12,14)            117.3107         calculate D2E/DX2 analytically  !
 ! A22   A(13,12,14)           132.108          calculate D2E/DX2 analytically  !
 ! A23   A(12,13,18)           142.6894         calculate D2E/DX2 analytically  !
 ! A24   A(16,15,23)           109.3154         calculate D2E/DX2 analytically  !
 ! A25   A(16,15,30)           107.3565         calculate D2E/DX2 analytically  !
 ! A26   A(16,15,37)           112.6777         calculate D2E/DX2 analytically  !
 ! A27   A(23,15,30)           108.7757         calculate D2E/DX2 analytically  !
 ! A28   A(23,15,37)           111.5753         calculate D2E/DX2 analytically  !
 ! A29   A(30,15,37)           106.9593         calculate D2E/DX2 analytically  !
 ! A30   A(15,16,17)           117.1656         calculate D2E/DX2 analytically  !
 ! A31   A(15,16,18)           105.2287         calculate D2E/DX2 analytically  !
 ! A32   A(15,16,19)           104.894          calculate D2E/DX2 analytically  !
 ! A33   A(17,16,18)           109.7947         calculate D2E/DX2 analytically  !
 ! A34   A(17,16,19)           108.9599         calculate D2E/DX2 analytically  !
 ! A35   A(18,16,19)           110.6258         calculate D2E/DX2 analytically  !
 ! A36   A(16,17,20)           106.0527         calculate D2E/DX2 analytically  !
 ! A37   A(16,17,21)           113.2542         calculate D2E/DX2 analytically  !
 ! A38   A(16,17,22)           113.8191         calculate D2E/DX2 analytically  !
 ! A39   A(20,17,21)           106.6853         calculate D2E/DX2 analytically  !
 ! A40   A(20,17,22)           107.3517         calculate D2E/DX2 analytically  !
 ! A41   A(21,17,22)           109.2152         calculate D2E/DX2 analytically  !
 ! A42   A(13,18,16)           154.1559         calculate D2E/DX2 analytically  !
 ! A43   A(15,23,24)           116.572          calculate D2E/DX2 analytically  !
 ! A44   A(15,23,25)           106.5642         calculate D2E/DX2 analytically  !
 ! A45   A(15,23,26)           105.801          calculate D2E/DX2 analytically  !
 ! A46   A(24,23,25)           109.7579         calculate D2E/DX2 analytically  !
 ! A47   A(24,23,26)           110.256          calculate D2E/DX2 analytically  !
 ! A48   A(25,23,26)           107.4481         calculate D2E/DX2 analytically  !
 ! A49   A(23,24,27)           107.4851         calculate D2E/DX2 analytically  !
 ! A50   A(23,24,28)           112.6847         calculate D2E/DX2 analytically  !
 ! A51   A(23,24,29)           113.1249         calculate D2E/DX2 analytically  !
 ! A52   A(27,24,28)           107.1514         calculate D2E/DX2 analytically  !
 ! A53   A(27,24,29)           107.237          calculate D2E/DX2 analytically  !
 ! A54   A(28,24,29)           108.8363         calculate D2E/DX2 analytically  !
 ! A55   A(15,30,31)           115.8089         calculate D2E/DX2 analytically  !
 ! A56   A(15,30,32)           106.0806         calculate D2E/DX2 analytically  !
 ! A57   A(15,30,33)           105.897          calculate D2E/DX2 analytically  !
 ! A58   A(31,30,32)           110.0475         calculate D2E/DX2 analytically  !
 ! A59   A(31,30,33)           110.6912         calculate D2E/DX2 analytically  !
 ! A60   A(32,30,33)           107.925          calculate D2E/DX2 analytically  !
 ! A61   A(30,31,34)           107.0935         calculate D2E/DX2 analytically  !
 ! A62   A(30,31,35)           113.345          calculate D2E/DX2 analytically  !
 ! A63   A(30,31,36)           112.2512         calculate D2E/DX2 analytically  !
 ! A64   A(34,31,35)           108.3432         calculate D2E/DX2 analytically  !
 ! A65   A(34,31,36)           107.5471         calculate D2E/DX2 analytically  !
 ! A66   A(35,31,36)           108.0431         calculate D2E/DX2 analytically  !
 ! A67   A(15,37,38)           116.7675         calculate D2E/DX2 analytically  !
 ! A68   A(15,37,39)           104.9099         calculate D2E/DX2 analytically  !
 ! A69   A(15,37,40)           106.6207         calculate D2E/DX2 analytically  !
 ! A70   A(38,37,39)           111.3252         calculate D2E/DX2 analytically  !
 ! A71   A(38,37,40)           107.6079         calculate D2E/DX2 analytically  !
 ! A72   A(39,37,40)           109.3727         calculate D2E/DX2 analytically  !
 ! A73   A(37,38,41)           106.5921         calculate D2E/DX2 analytically  !
 ! A74   A(37,38,42)           114.5495         calculate D2E/DX2 analytically  !
 ! A75   A(37,38,43)           109.891          calculate D2E/DX2 analytically  !
 ! A76   A(41,38,42)           107.173          calculate D2E/DX2 analytically  !
 ! A77   A(41,38,43)           106.8217         calculate D2E/DX2 analytically  !
 ! A78   A(42,38,43)           111.3739         calculate D2E/DX2 analytically  !
 ! D1    D(3,1,2,5)            -41.2356         calculate D2E/DX2 analytically  !
 ! D2    D(3,1,2,6)             82.1968         calculate D2E/DX2 analytically  !
 ! D3    D(3,1,2,11)          -157.9894         calculate D2E/DX2 analytically  !
 ! D4    D(4,1,2,5)           -168.3675         calculate D2E/DX2 analytically  !
 ! D5    D(4,1,2,6)            -44.9351         calculate D2E/DX2 analytically  !
 ! D6    D(4,1,2,11)            74.8787         calculate D2E/DX2 analytically  !
 ! D7    D(10,1,2,5)            71.159          calculate D2E/DX2 analytically  !
 ! D8    D(10,1,2,6)          -165.4086         calculate D2E/DX2 analytically  !
 ! D9    D(10,1,2,11)          -45.5948         calculate D2E/DX2 analytically  !
 ! D10   D(2,1,3,12)           -60.0204         calculate D2E/DX2 analytically  !
 ! D11   D(4,1,3,12)            67.7118         calculate D2E/DX2 analytically  !
 ! D12   D(10,1,3,12)         -174.6913         calculate D2E/DX2 analytically  !
 ! D13   D(2,1,4,7)           -176.8679         calculate D2E/DX2 analytically  !
 ! D14   D(2,1,4,8)             63.2877         calculate D2E/DX2 analytically  !
 ! D15   D(2,1,4,9)            -57.3805         calculate D2E/DX2 analytically  !
 ! D16   D(3,1,4,7)             56.8951         calculate D2E/DX2 analytically  !
 ! D17   D(3,1,4,8)            -62.9493         calculate D2E/DX2 analytically  !
 ! D18   D(3,1,4,9)            176.3825         calculate D2E/DX2 analytically  !
 ! D19   D(10,1,4,7)           -57.4351         calculate D2E/DX2 analytically  !
 ! D20   D(10,1,4,8)          -177.2795         calculate D2E/DX2 analytically  !
 ! D21   D(10,1,4,9)            62.0523         calculate D2E/DX2 analytically  !
 ! D22   D(1,3,12,13)         -176.7488         calculate D2E/DX2 analytically  !
 ! D23   D(1,3,12,14)            4.1506         calculate D2E/DX2 analytically  !
 ! D24   D(3,12,13,18)          41.2298         calculate D2E/DX2 analytically  !
 ! D25   D(14,12,13,18)       -139.8474         calculate D2E/DX2 analytically  !
 ! D26   D(12,13,18,16)       -125.3167         calculate D2E/DX2 analytically  !
 ! D27   D(23,15,16,17)        -40.2632         calculate D2E/DX2 analytically  !
 ! D28   D(23,15,16,18)       -162.5524         calculate D2E/DX2 analytically  !
 ! D29   D(23,15,16,19)         80.6923         calculate D2E/DX2 analytically  !
 ! D30   D(30,15,16,17)       -158.095          calculate D2E/DX2 analytically  !
 ! D31   D(30,15,16,18)         79.6157         calculate D2E/DX2 analytically  !
 ! D32   D(30,15,16,19)        -37.1395         calculate D2E/DX2 analytically  !
 ! D33   D(37,15,16,17)         84.4008         calculate D2E/DX2 analytically  !
 ! D34   D(37,15,16,18)        -37.8884         calculate D2E/DX2 analytically  !
 ! D35   D(37,15,16,19)       -154.6437         calculate D2E/DX2 analytically  !
 ! D36   D(16,15,23,24)       -173.6892         calculate D2E/DX2 analytically  !
 ! D37   D(16,15,23,25)         63.4161         calculate D2E/DX2 analytically  !
 ! D38   D(16,15,23,26)        -50.7435         calculate D2E/DX2 analytically  !
 ! D39   D(30,15,23,24)        -56.751          calculate D2E/DX2 analytically  !
 ! D40   D(30,15,23,25)       -179.6457         calculate D2E/DX2 analytically  !
 ! D41   D(30,15,23,26)         66.1947         calculate D2E/DX2 analytically  !
 ! D42   D(37,15,23,24)         61.0063         calculate D2E/DX2 analytically  !
 ! D43   D(37,15,23,25)        -61.8884         calculate D2E/DX2 analytically  !
 ! D44   D(37,15,23,26)       -176.048          calculate D2E/DX2 analytically  !
 ! D45   D(16,15,30,31)        -48.6029         calculate D2E/DX2 analytically  !
 ! D46   D(16,15,30,32)       -170.994          calculate D2E/DX2 analytically  !
 ! D47   D(16,15,30,33)         74.4778         calculate D2E/DX2 analytically  !
 ! D48   D(23,15,30,31)       -166.7851         calculate D2E/DX2 analytically  !
 ! D49   D(23,15,30,32)         70.8238         calculate D2E/DX2 analytically  !
 ! D50   D(23,15,30,33)        -43.7044         calculate D2E/DX2 analytically  !
 ! D51   D(37,15,30,31)         72.5697         calculate D2E/DX2 analytically  !
 ! D52   D(37,15,30,32)        -49.8215         calculate D2E/DX2 analytically  !
 ! D53   D(37,15,30,33)       -164.3496         calculate D2E/DX2 analytically  !
 ! D54   D(16,15,37,38)        -58.0406         calculate D2E/DX2 analytically  !
 ! D55   D(16,15,37,39)        178.193          calculate D2E/DX2 analytically  !
 ! D56   D(16,15,37,40)         62.2347         calculate D2E/DX2 analytically  !
 ! D57   D(23,15,37,38)         65.3762         calculate D2E/DX2 analytically  !
 ! D58   D(23,15,37,39)        -58.3903         calculate D2E/DX2 analytically  !
 ! D59   D(23,15,37,40)       -174.3486         calculate D2E/DX2 analytically  !
 ! D60   D(30,15,37,38)       -175.779          calculate D2E/DX2 analytically  !
 ! D61   D(30,15,37,39)         60.4545         calculate D2E/DX2 analytically  !
 ! D62   D(30,15,37,40)        -55.5038         calculate D2E/DX2 analytically  !
 ! D63   D(15,16,17,20)       -175.1299         calculate D2E/DX2 analytically  !
 ! D64   D(15,16,17,21)        -58.4613         calculate D2E/DX2 analytically  !
 ! D65   D(15,16,17,22)         67.0786         calculate D2E/DX2 analytically  !
 ! D66   D(18,16,17,20)        -55.2304         calculate D2E/DX2 analytically  !
 ! D67   D(18,16,17,21)         61.4383         calculate D2E/DX2 analytically  !
 ! D68   D(18,16,17,22)       -173.0218         calculate D2E/DX2 analytically  !
 ! D69   D(19,16,17,20)         66.069          calculate D2E/DX2 analytically  !
 ! D70   D(19,16,17,21)       -177.2624         calculate D2E/DX2 analytically  !
 ! D71   D(19,16,17,22)        -51.7224         calculate D2E/DX2 analytically  !
 ! D72   D(15,16,18,13)         65.3214         calculate D2E/DX2 analytically  !
 ! D73   D(17,16,18,13)        -61.6113         calculate D2E/DX2 analytically  !
 ! D74   D(19,16,18,13)        178.0953         calculate D2E/DX2 analytically  !
 ! D75   D(15,23,24,27)       -179.6886         calculate D2E/DX2 analytically  !
 ! D76   D(15,23,24,28)        -61.8631         calculate D2E/DX2 analytically  !
 ! D77   D(15,23,24,29)         62.1244         calculate D2E/DX2 analytically  !
 ! D78   D(25,23,24,27)        -58.467          calculate D2E/DX2 analytically  !
 ! D79   D(25,23,24,28)         59.3585         calculate D2E/DX2 analytically  !
 ! D80   D(25,23,24,29)       -176.654          calculate D2E/DX2 analytically  !
 ! D81   D(26,23,24,27)         59.7074         calculate D2E/DX2 analytically  !
 ! D82   D(26,23,24,28)        177.5329         calculate D2E/DX2 analytically  !
 ! D83   D(26,23,24,29)        -58.4795         calculate D2E/DX2 analytically  !
 ! D84   D(15,30,31,34)       -171.0046         calculate D2E/DX2 analytically  !
 ! D85   D(15,30,31,35)        -51.5764         calculate D2E/DX2 analytically  !
 ! D86   D(15,30,31,36)         71.1804         calculate D2E/DX2 analytically  !
 ! D87   D(32,30,31,34)        -50.7397         calculate D2E/DX2 analytically  !
 ! D88   D(32,30,31,35)         68.6885         calculate D2E/DX2 analytically  !
 ! D89   D(32,30,31,36)       -168.5547         calculate D2E/DX2 analytically  !
 ! D90   D(33,30,31,34)         68.4719         calculate D2E/DX2 analytically  !
 ! D91   D(33,30,31,35)       -172.0999         calculate D2E/DX2 analytically  !
 ! D92   D(33,30,31,36)        -49.3431         calculate D2E/DX2 analytically  !
 ! D93   D(15,37,38,41)       -170.7243         calculate D2E/DX2 analytically  !
 ! D94   D(15,37,38,42)        -52.3777         calculate D2E/DX2 analytically  !
 ! D95   D(15,37,38,43)         73.8759         calculate D2E/DX2 analytically  !
 ! D96   D(39,37,38,41)        -50.3076         calculate D2E/DX2 analytically  !
 ! D97   D(39,37,38,42)         68.039          calculate D2E/DX2 analytically  !
 ! D98   D(39,37,38,43)       -165.7074         calculate D2E/DX2 analytically  !
 ! D99   D(40,37,38,41)         69.5267         calculate D2E/DX2 analytically  !
 ! D100  D(40,37,38,42)       -172.1267         calculate D2E/DX2 analytically  !
 ! D101  D(40,37,38,43)        -45.8731         calculate D2E/DX2 analytically  !
 --------------------------------------------------------------------------------
 Trust Radius=3.00D-01 FncErr=1.00D-07 GrdErr=1.00D-06 EigMax=2.50D+02 EigMin=1.00D-04
 Number of steps in this run=    231 maximum allowed number of steps=    258.
 GradGradGradGradGradGradGradGradGradGradGradGradGradGradGradGradGradGrad

                          Input orientation:                          
 ---------------------------------------------------------------------
 Center     Atomic      Atomic             Coordinates (Angstroms)
 Number     Number       Type             X           Y           Z
 ---------------------------------------------------------------------
      1          6           0        1.205110    1.316416    0.789656
      2          6           0        1.733790    2.191923   -0.346812
      3          8           0        0.036069    0.610276    0.376776
      4          6           0        0.990036    2.078756    2.089298
      5          1           0        1.676630    1.659642   -1.294401
      6          1           0        1.209288    3.137514   -0.417558
      7          1           0        0.666038    1.391087    2.875575
      8          1           0        0.223322    2.839976    1.944239
      9          1           0        1.920592    2.554302    2.409084
     10          1           0        1.941215    0.522627    0.957696
     11         35           0        3.641691    2.605856   -0.083243
     12          6           0       -1.120490    1.366309   -0.046642
     13          8           0       -2.071976    0.601864   -0.310281
     14          8           0       -1.006016    2.586054   -0.101845
     15          7           0       -2.134740   -2.847293   -0.055558
     16          6           0       -3.355733   -1.950247    0.167854
     17          6           0       -4.427961   -1.956251   -0.909906
     18          1           0       -2.951817   -0.937807    0.284033
     19          1           0       -3.793345   -2.300055    1.105943
     20          1           0       -5.158395   -1.199574   -0.613634
     21          1           0       -4.054459   -1.663444   -1.889166
     22          1           0       -4.960282   -2.906365   -0.997438
     23          6           0       -2.582298   -4.161330   -0.644586
     24          6           0       -1.517843   -5.236232   -0.796556
     25          1           0       -3.016701   -3.933948   -1.615879
     26          1           0       -3.389727   -4.516920    0.000355
     27          1           0       -1.997584   -6.113326   -1.237636
     28          1           0       -0.711795   -4.938164   -1.468845
     29          1           0       -1.085407   -5.548586    0.155108
     30          6           0       -1.509072   -3.108777    1.305028
     31          6           0       -1.285157   -1.882784    2.177804
     32          1           0       -0.559283   -3.607122    1.109890
     33          1           0       -2.167969   -3.824094    1.805250
     34          1           0       -0.690651   -2.204323    3.037165
     35          1           0       -0.746239   -1.080546    1.667585
     36          1           0       -2.219851   -1.471817    2.560012
     37          6           0       -1.065351   -2.181614   -0.916684
     38          6           0       -1.486686   -1.731114   -2.301368
     39          1           0       -0.252467   -2.907671   -0.965896
     40          1           0       -0.730055   -1.300094   -0.371090
     41          1           0       -0.573256   -1.438889   -2.825956
     42          1           0       -1.971059   -2.505033   -2.903124
     43          1           0       -2.107515   -0.838476   -2.227948
 ---------------------------------------------------------------------
                    Distance matrix (angstroms):
                    1          2          3          4          5
     1  C    0.000000
     2  C    1.528913   0.000000
     3  O    1.426801   2.430523   0.000000
     4  C    1.522001   2.549629   2.449330   0.000000
     5  H    2.164123   1.088354   2.566212   3.478000   0.000000
     6  H    2.184898   1.083628   2.897299   2.730086   1.780833
     7  H    2.155744   3.487866   2.692680   1.093661   4.299083
     8  H    2.149001   2.819646   2.731953   1.090114   3.740866
     9  H    2.160283   2.785889   3.385401   1.092859   3.817818
    10  H    1.095531   2.128689   1.993673   2.146346   2.536681
    11  Br   2.891632   1.969999   4.146621   3.468291   2.494732
    12  C    2.471902   2.986412   1.445163   3.086121   3.076821
    13  O    3.529835   4.124740   2.217199   4.161142   4.017391
    14  O    2.701080   2.778828   2.284451   3.007105   3.078477
    15  N    5.404207   6.359564   4.105375   6.215351   6.031064
    16  C    5.644379   6.582226   4.254909   6.229809   6.363503
    17  C    6.732782   7.449268   5.307558   7.391292   7.105530
    18  H    4.755756   5.669928   3.366396   5.281746   5.537212
    19  H    6.177658   7.268947   4.864784   6.559093   7.166692
    20  H    6.985243   7.686069   5.589179   7.473720   7.440170
    21  H    6.612013   7.123660   5.199684   7.434996   6.651468
    22  H    7.683596   8.439577   6.262488   8.353781   8.061340
    23  C    6.812284   7.686424   5.537802   7.692488   7.241854
    24  C    7.271020   8.121137   6.162224   8.253888   7.616140
    25  H    7.153783   7.855189   5.825809   8.120030   7.308827
    26  H    7.467485   8.448640   6.177856   8.188342   8.092854
    27  H    8.340757   9.148436   7.207558   9.332983   8.597796
    28  H    6.920630   7.620891   5.894981   8.049458   7.018978
    29  H    7.264804   8.253198   6.264058   8.137868   7.854201
    30  C    5.216773   6.429786   4.132852   5.811292   6.296312
    31  C    4.285238   5.664889   3.347340   4.569260   5.777298
    32  H    5.239929   6.403834   4.321845   5.974014   6.206346
    33  H    6.231688   7.486491   5.153830   6.700546   7.379711
    34  H    4.587026   6.054436   3.940528   4.697651   6.268709
    35  H    3.213090   4.573554   2.266511   3.629557   4.706621
    36  H    4.758021   6.124042   3.767069   4.809523   6.312297
    37  C    4.505863   5.223770   3.268152   5.604578   4.734594
    38  C    5.107606   5.438931   3.869541   6.318798   4.745290
    39  H    4.800980   5.507662   3.776503   5.978501   4.968871
    40  H    3.455187   4.273793   2.189923   4.519828   3.924879
    41  H    4.881285   4.965019   3.850694   6.243191   4.124141
    42  H    6.190973   6.505539   4.948884   7.396180   5.765253
    43  H    4.972221   5.241909   3.671297   6.061656   4.629455
                    6          7          8          9         10
     6  H    0.000000
     7  H    3.766942   0.000000
     8  H    2.576576   1.778388   0.000000
     9  H    2.972540   1.773299   1.782811   0.000000
    10  H    3.043793   2.461414   3.048693   2.496929   0.000000
    11  Br   2.512173   4.368613   3.981299   3.029279   2.883577
    12  C    2.950019   3.425149   2.818001   4.085352   3.330845
    13  O    4.148219   4.274257   3.919234   5.210332   4.209483
    14  O    2.304638   3.617836   2.400460   3.856269   3.750537
    15  N    6.865237   5.865131   6.473382   7.190091   5.384836
    16  C    6.860571   5.888201   6.237901   7.290657   5.898866
    17  C    7.613634   7.175191   7.265285   8.465513   7.085138
    18  H    5.866453   5.022819   5.206672   6.360113   5.150578
    19  H    7.544173   6.053282   6.576950   7.609996   6.393332
    20  H    7.706891   7.267057   7.198858   8.563905   7.472584
    21  H    7.274741   7.369940   7.298986   8.483252   6.987964
    22  H    8.656115   8.069932   8.279109   9.421768   7.950547
    23  C    8.228049   7.332977   7.974447   8.642953   6.705888
    24  C    8.814789   7.885128   8.704525   9.098977   6.943122
    25  H    8.324694   7.879830   8.310128   9.092556   7.145997
    26  H    8.939572   7.721442   8.423582   9.165350   7.398140
    27  H    9.825202   8.962678   9.757990  10.187171   8.023060
    28  H    8.367338   7.799476   8.545352   8.837694   6.538104
    29  H    9.002328   7.656864   8.676505   8.931586   6.831121
    30  C    7.026588   5.238940   6.228759   6.712079   5.021177
    31  C    6.177504   3.874568   4.963318   5.478873   4.205252
    32  H    7.138001   5.440694   6.547800   6.767631   4.830164
    33  H    8.050511   6.031194   7.081484   7.600321   6.041335
    34  H    6.639285   3.846257   5.241640   5.464210   4.322866
    35  H    5.095482   3.092367   4.048096   4.568799   3.208818
    36  H    6.470769   4.077273   4.993979   5.777169   4.884639
    37  C    5.806568   5.490276   5.921311   6.511950   4.457091
    38  C    5.875420   6.417406   6.468707   7.222374   5.239404
    39  H    6.243530   5.837797   6.459931   6.778335   4.503265
    40  H    4.843096   4.442113   4.838373   5.441660   3.496236
    41  H    5.470037   6.484757   6.457398   7.040632   4.948346
    42  H    6.937650   7.451671   7.541973   8.304298   6.275233
    43  H    5.485179   6.221695   6.030834   7.017026   5.328522
                   11         12         13         14         15
    11  Br   0.000000
    12  C    4.920994   0.000000
    13  O    6.059168   1.248682   0.000000
    14  O    4.647786   1.226348   2.262018   0.000000
    15  N    7.943850   4.333962   3.459119   5.549542   0.000000
    16  C    8.353746   4.005230   2.896535   5.115851   1.531479
    17  C    9.306744   4.766969   3.529046   5.744145   2.604367
    18  H    7.494450   2.961766   1.870272   4.043840   2.104536
    19  H    8.986762   4.681328   3.659226   5.753435   2.097504
    20  H    9.602298   4.817667   3.586528   5.642265   3.488397
    21  H    8.984376   4.602442   3.399226   5.526821   2.906706
    22  H   10.257401   5.822693   4.595886   6.826783   2.978979
    23  C    9.211295   5.748844   4.802104   6.950282   1.507964
    24  C    9.414242   6.656862   5.884462   7.869736   2.576173
    25  H    9.457917   5.843872   4.813593   6.988961   2.096014
    26  H   10.009084   6.305873   5.294800   7.492981   2.089443
    27  H   10.447879   7.624480   6.779329   8.829068   3.476074
    28  H    8.819579   6.475807   5.821020   7.653046   2.897222
    29  H    9.428531   6.917926   6.246434   8.139084   2.905592
    30  C    7.817588   4.690885   4.085944   5.887568   1.520207
    31  C    7.038043   3.941051   3.603211   5.024463   2.576815
    32  H    7.594264   5.136880   4.692621   6.326397   2.101826
    33  H    8.869206   5.609545   4.906505   6.788015   2.101868
    34  H    7.186373   4.737514   4.581281   5.735900   3.473289
    35  H    5.992403   3.010936   2.915482   4.079500   2.831705
    36  H    7.613927   4.007268   3.544094   5.002519   2.956414
    37  C    6.765407   3.653460   3.021385   4.837163   1.525863
    38  C    7.073163   3.848625   3.122463   4.868972   2.590269
    39  H    6.807534   4.457061   4.007154   5.612079   2.091725
    40  H    5.869537   2.714298   2.328496   3.905226   2.113416
    41  H    6.453543   3.986626   3.569237   4.879368   3.478065
    42  H    8.097893   4.885719   4.047941   5.890470   2.872728
    43  H    7.036800   3.254749   2.398601   4.178639   2.958947
                   16         17         18         19         20
    16  C    0.000000
    17  C    1.520288   0.000000
    18  H    1.096212   2.154465   0.000000
    19  H    1.092649   2.141165   1.799840   0.000000
    20  H    2.103289   1.092644   2.396521   2.455884   0.000000
    21  H    2.191302   1.088205   2.542668   3.073131   1.749523
    22  H    2.201510   1.092586   3.090521   2.480638   1.760594
    23  C    2.479344   2.887774   3.374904   2.827602   3.925460
    24  C    3.886595   4.386332   4.658370   4.173553   5.438905
    25  H    2.689185   2.530087   3.548343   3.268195   3.614990
    26  H    2.572357   2.909215   3.616945   2.509925   3.809193
    27  H    4.599043   4.826532   5.478324   4.822671   5.875803
    28  H    4.312405   4.797302   4.908476   4.804696   5.872026
    29  H    4.254713   5.021135   4.975881   4.334740   6.007837
    30  C    2.458763   3.841115   2.799474   2.431372   4.543553
    31  C    2.886475   4.406423   2.693902   2.759349   4.822953
    32  H    3.384198   4.666007   3.678519   3.488208   5.469795
    33  H    2.757381   3.996057   3.355469   2.335288   4.656367
    34  H    3.924304   5.441360   3.781094   3.655885   5.856500
    35  H    3.132895   4.578799   2.607521   3.329790   4.968425
    36  H    2.691012   4.141347   2.449698   2.296993   4.333727
    37  C    2.544721   3.370160   2.558814   3.398088   4.220101
    38  C    3.104579   3.261587   3.075751   4.153810   4.075835
    39  H    3.439812   4.282883   3.567797   4.147232   5.206709
    40  H    2.758141   3.794124   2.344497   3.544756   4.436116
    41  H    4.119049   4.335627   3.947235   5.154649   5.096581
    42  H    3.414091   3.210988   3.684570   4.408555   4.135831
    43  H    2.921293   2.893290   2.651935   4.011616   3.470486
                   21         22         23         24         25
    21  H    0.000000
    22  H    1.777793   0.000000
    23  C    3.155261   2.711872   0.000000
    24  C    4.515864   4.161613   1.520386   0.000000
    25  H    2.511337   2.283835   1.088034   2.147978   0.000000
    26  H    3.486328   2.460919   1.092856   2.157875   1.758186
    27  H    4.945369   4.372628   2.122236   1.092702   2.435437
    28  H    4.698283   4.732872   2.186700   1.091114   2.518464
    29  H    5.299873   4.829529   2.191956   1.090977   3.077880
    30  C    4.332535   4.153694   2.461844   2.990451   3.389034
    31  C    4.925179   4.963509   3.852302   4.488493   4.647316
    32  H    4.998848   4.929572   2.734579   2.684655   3.684499
    33  H    4.677175   4.061317   2.507408   3.030873   3.526548
    34  H    5.989699   5.916133   4.578591   4.957231   5.482055
    35  H    4.892297   5.309814   4.267139   4.892555   4.906938
    36  H    4.816398   4.714164   4.199321   5.092169   4.912751
    37  C    3.185748   3.962609   2.508872   3.090287   2.714280
    38  C    2.601528   3.891955   3.138669   3.814614   2.768270
    39  H    4.105566   4.707921   2.665148   2.655569   3.019389
    40  H    3.672634   4.568067   3.419397   4.036683   3.703436
    41  H    3.612032   4.974230   4.025706   4.408007   3.695948
    42  H    2.465145   3.567655   2.866693   3.478862   2.189101
    43  H    2.141480   3.732104   3.711309   4.662280   3.283777
                   26         27         28         29         30
    26  H    0.000000
    27  H    2.453405   0.000000
    28  H    3.083393   1.757190   0.000000
    29  H    2.529461   1.758048   1.774662   0.000000
    30  C    2.687360   3.966245   3.417116   2.730289   0.000000
    31  C    4.013623   5.483636   4.791883   4.191575   1.521491
    32  H    3.173360   3.722989   2.905995   2.226589   1.090195
    33  H    2.286995   3.811662   3.752505   2.620836   1.093639
    34  H    4.674969   5.938207   5.270527   4.432401   2.118525
    35  H    4.645035   5.944329   4.971881   4.729271   2.197062
    36  H    4.146457   6.001261   5.524625   4.867296   2.181703
    37  C    3.420137   4.053446   2.833452   3.533503   2.447963
    38  C    4.084141   4.538317   3.402752   4.557235   3.860641
    39  H    3.655916   3.659986   2.141691   2.987452   2.603189
    40  H    4.190441   5.052201   3.800125   4.295677   2.586034
    41  H    5.039327   5.138271   3.755778   5.102808   4.552945
    42  H    3.806639   3.974208   3.092415   4.404586   4.276270
    43  H    4.487800   5.368132   4.396784   5.376690   4.241971
                   31         32         33         34         35
    31  C    0.000000
    32  H    2.154223   0.000000
    33  H    2.164911   1.765920   0.000000
    34  H    1.093310   2.387361   2.514705   0.000000
    35  H    1.092859   2.594140   3.093109   1.772488   0.000000
    36  H    1.090243   3.069180   2.470944   1.761446   1.766650
    37  C    3.116644   2.528869   3.364882   3.971629   2.827124
    38  C    4.486268   4.002020   4.659294   5.418259   4.089510
    39  H    3.464057   2.211844   3.491164   4.087934   3.243057
    40  H    2.672925   2.746788   3.629687   3.526384   2.050527
    41  H    5.073604   4.493586   5.447970   5.914039   4.511124
    42  H    5.164638   4.394541   4.893616   6.084152   4.941733
    43  H    4.601902   4.604735   5.018392   5.620895   4.133624
                   36         37         38         39         40
    36  H    0.000000
    37  C    3.731501   0.000000
    38  C    4.923188   1.515857   0.000000
    39  H    4.285359   1.091037   2.165887   0.000000
    40  H    3.292467   1.089575   2.117603   1.779379   0.000000
    41  H    5.632141   2.106921   1.093134   2.391662   2.463781
    42  H    5.565545   2.207000   1.093471   2.620788   3.066458
    43  H    4.830973   2.146984   1.089781   3.052138   2.357628
                   41         42         43
    41  H    0.000000
    42  H    1.759679   0.000000
    43  H    1.752729   1.803301   0.000000
 Symmetry turned off by external request.
 Stoichiometry    C12H26BrNO3
 Framework group  C1[X(C12H26BrNO3)]
 Deg. of freedom   123
 Full point group                 C1      NOp   1
 Rotational constants (GHZ):           0.6324466           0.1311533           0.1251698
 General basis read from cards:  (5D, 7F)
 ======================================================================================================
                                       Pseudopotential Parameters
 ======================================================================================================
  Center     Atomic      Valence      Angular      Power
  Number     Number     Electrons     Momentum     of R      Exponent        Coefficient   SO-Coeffient
 ======================================================================================================
    1          6
                                   No pseudopotential on this center.
    2          6
                                   No pseudopotential on this center.
    3          8
                                   No pseudopotential on this center.
    4          6
                                   No pseudopotential on this center.
    5          1
                                   No pseudopotential on this center.
    6          1
                                   No pseudopotential on this center.
    7          1
                                   No pseudopotential on this center.
    8          1
                                   No pseudopotential on this center.
    9          1
                                   No pseudopotential on this center.
   10          1
                                   No pseudopotential on this center.
   11         35
                                   No pseudopotential on this center.
   12          6
                                   No pseudopotential on this center.
   13          8
                                   No pseudopotential on this center.
   14          8
                                   No pseudopotential on this center.
   15          7
                                   No pseudopotential on this center.
   16          6
                                   No pseudopotential on this center.
   17          6
                                   No pseudopotential on this center.
   18          1
                                   No pseudopotential on this center.
   19          1
                                   No pseudopotential on this center.
   20          1
                                   No pseudopotential on this center.
   21          1
                                   No pseudopotential on this center.
   22          1
                                   No pseudopotential on this center.
   23          6
                                   No pseudopotential on this center.
   24          6
                                   No pseudopotential on this center.
   25          1
                                   No pseudopotential on this center.
   26          1
                                   No pseudopotential on this center.
   27          1
                                   No pseudopotential on this center.
   28          1
                                   No pseudopotential on this center.
   29          1
                                   No pseudopotential on this center.
   30          6
                                   No pseudopotential on this center.
   31          6
                                   No pseudopotential on this center.
   32          1
                                   No pseudopotential on this center.
   33          1
                                   No pseudopotential on this center.
   34          1
                                   No pseudopotential on this center.
   35          1
                                   No pseudopotential on this center.
   36          1
                                   No pseudopotential on this center.
   37          6
                                   No pseudopotential on this center.
   38          6
                                   No pseudopotential on this center.
   39          1
                                   No pseudopotential on this center.
   40          1
                                   No pseudopotential on this center.
   41          1
                                   No pseudopotential on this center.
   42          1
                                   No pseudopotential on this center.
   43          1
                                   No pseudopotential on this center.
 ======================================================================================================
   382 basis functions,   713 primitive gaussians,   400 cartesian basis functions
    82 alpha electrons       82 beta electrons
       nuclear repulsion energy      1724.9306572713 Hartrees.
 NAtoms=   43 NActive=   43 NUniq=   43 SFac= 1.00D+00 NAtFMM=   60 NAOKFM=F Big=F
 Integral buffers will be    131072 words long.
 Raffenetti 2 integral format.
 Two-electron integral symmetry is turned off.
 One-electron integrals computed using PRISM.
   1 Symmetry operations used in ECPInt.
 ECPInt:  NShTT=   11935 NPrTT=   57376 LenC2=   10237 LenP2D=   31118.
 LDataN:  DoStor=T MaxTD1= 4 Len=   56
 NBasis=   382 RedAO= T EigKep=  4.23D-03  NBF=   382
 NBsUse=   382 1.00D-06 EigRej= -1.00D+00 NBFU=   382
 ExpMin= 1.43D-01 ExpMax= 5.74D+05 ExpMxC= 5.74D+03 IAcc=3 IRadAn=         5 AccDes= 0.00D+00
 Harris functional with IExCor=20419 and IRadAn=       5 diagonalized for initial guess.
 HarFok:  IExCor=20419 AccDes= 0.00D+00 IRadAn=         5 IDoV= 1 UseB2=F ITyADJ=14
 ICtDFT=  3500011 ScaDFX=  1.000000  1.000000  1.000000  1.000000
 FoFCou: FMM=F IPFlag=           0 FMFlag=      100000 FMFlg1=           0
         NFxFlg=           0 DoJE=T BraDBF=F KetDBF=T FulRan=T
         wScrn=  0.000000 ICntrl=       500 IOpCl=  0 I1Cent=   200000004 NGrid=           0
         NMat0=    1 NMatS0=      1 NMatT0=    0 NMatD0=    1 NMtDS0=    0 NMtDT0=    0
 Symmetry not used in FoFCou.
 Requested convergence on RMS density matrix=1.00D-08 within  32 cycles.
 Requested convergence on MAX density matrix=1.00D-06.
 Requested convergence on             energy=1.00D-06.
 No special actions if energy rises.
 Integral accuracy reduced to 1.0D-05 until final iterations.
 Initial convergence to 1.0D-05 achieved.  Increase integral accuracy.
 SCF Done:  E(RCAM-B3LYP) =  -3324.47549957     A.U. after   14 cycles
            NFock= 14  Conv=0.68D-08     -V/T= 2.0015
 QCSCF skips out because SCF is already converged.
 DoSCS=F DFT=T ScalE2(SS,OS)=  1.000000  1.000000
 Range of M.O.s used for correlation:     1   382
 NBasis=   382 NAE=    82 NBE=    82 NFC=     0 NFV=     0
 NROrb=    382 NOA=    82 NOB=    82 NVA=   300 NVB=   300
   1 Symmetry operations used in ECPInt.
 ECPInt:  NShTT=   11935 NPrTT=   57376 LenC2=   10237 LenP2D=   31118.
 LDataN:  DoStor=T MaxTD1= 5 Len=  102
 Number of processors reduced to  27 by ecpmxn.
 Symmetrizing basis deriv contribution to polar:
 IMax=3 JMax=2 DiffMx= 0.00D+00
 G2DrvN: will do    44 centers at a time, making    1 passes.
 Calling FoFCou, ICntrl=  3107 FMM=F I1Cent=   0 AccDes= 0.00D+00.
 End of G2Drv F.D. properties file   721 does not exist.
 End of G2Drv F.D. properties file   722 does not exist.
 End of G2Drv F.D. properties file   788 does not exist.
          IDoAtm=1111111111111111111111111111111111111111111
          Differentiating once with respect to nuclear coordinates.
 CalDSu exits because no D1Ps are significant.
          There are   132 degrees of freedom in the 1st order CPHF.  IDoFFX=6 NUNeed=     0.
    126 vectors produced by pass  0 Test12= 2.46D-14 1.00D-09 XBig12= 1.37D-01 7.19D-02.
 AX will form   126 AO Fock derivatives at one time.
    126 vectors produced by pass  1 Test12= 2.46D-14 1.00D-09 XBig12= 9.13D-03 1.73D-02.
    126 vectors produced by pass  2 Test12= 2.46D-14 1.00D-09 XBig12= 2.25D-04 2.37D-03.
    126 vectors produced by pass  3 Test12= 2.46D-14 1.00D-09 XBig12= 2.74D-06 1.86D-04.
    126 vectors produced by pass  4 Test12= 2.46D-14 1.00D-09 XBig12= 1.34D-08 9.09D-06.
    126 vectors produced by pass  5 Test12= 2.46D-14 1.00D-09 XBig12= 4.52D-11 7.03D-07.
     57 vectors produced by pass  6 Test12= 2.46D-14 1.00D-09 XBig12= 1.60D-13 3.05D-08.
      3 vectors produced by pass  7 Test12= 2.46D-14 1.00D-09 XBig12= 5.04D-16 1.66D-09.
 InvSVY:  IOpt=1 It=  1 EMax= 5.00D-16
 Solved reduced A of dimension   816 with   132 vectors.
 End of Minotr F.D. properties file   721 does not exist.
 End of Minotr F.D. properties file   722 does not exist.
 End of Minotr F.D. properties file   788 does not exist.

 **********************************************************************

            Population analysis using the SCF Density.

 **********************************************************************

 Alpha  occ. eigenvalues -- -482.69011 -61.77270 -56.34240 -56.33893 -56.33882
 Alpha  occ. eigenvalues --  -19.18717 -19.11502 -19.11113 -14.54959 -10.34892
 Alpha  occ. eigenvalues --  -10.34180 -10.33761 -10.31555 -10.31440 -10.30195
 Alpha  occ. eigenvalues --  -10.28296 -10.27544 -10.26880 -10.26847 -10.26474
 Alpha  occ. eigenvalues --  -10.20895  -8.55514  -6.57233  -6.56043  -6.56022
 Alpha  occ. eigenvalues --   -2.69392  -2.69059  -2.69042  -2.68098  -2.68098
 Alpha  occ. eigenvalues --   -1.11736  -1.11193  -1.02081  -0.98492  -0.90689
 Alpha  occ. eigenvalues --   -0.89054  -0.88284  -0.85845  -0.83955  -0.78878
 Alpha  occ. eigenvalues --   -0.77096  -0.75370  -0.74374  -0.71565  -0.67141
 Alpha  occ. eigenvalues --   -0.65381  -0.61810  -0.61580  -0.59349  -0.57753
 Alpha  occ. eigenvalues --   -0.55833  -0.55147  -0.53510  -0.52236  -0.51711
 Alpha  occ. eigenvalues --   -0.50724  -0.49598  -0.48706  -0.48630  -0.48094
 Alpha  occ. eigenvalues --   -0.47816  -0.47595  -0.47142  -0.46573  -0.46181
 Alpha  occ. eigenvalues --   -0.45296  -0.44587  -0.44127  -0.43764  -0.42978
 Alpha  occ. eigenvalues --   -0.42588  -0.41222  -0.40514  -0.39799  -0.38405
 Alpha  occ. eigenvalues --   -0.36021  -0.31680  -0.30307  -0.29351  -0.28164
 Alpha  occ. eigenvalues --   -0.26666  -0.24810
 Alpha virt. eigenvalues --    0.08015   0.09212   0.10503   0.11245   0.12389
 Alpha virt. eigenvalues --    0.12928   0.14298   0.15326   0.16056   0.16694
 Alpha virt. eigenvalues --    0.17298   0.18133   0.18526   0.18603   0.18975
 Alpha virt. eigenvalues --    0.19241   0.19875   0.20461   0.21016   0.21151
 Alpha virt. eigenvalues --    0.21868   0.22903   0.23444   0.23842   0.24131
 Alpha virt. eigenvalues --    0.24824   0.25253   0.25643   0.25902   0.27351
 Alpha virt. eigenvalues --    0.27663   0.28057   0.28466   0.30040   0.30723
 Alpha virt. eigenvalues --    0.31667   0.32272   0.34279   0.34999   0.37111
 Alpha virt. eigenvalues --    0.46881   0.48699   0.49840   0.50696   0.51735
 Alpha virt. eigenvalues --    0.52013   0.52785   0.53791   0.54736   0.55009
 Alpha virt. eigenvalues --    0.55647   0.55786   0.56579   0.57265   0.57699
 Alpha virt. eigenvalues --    0.58982   0.59786   0.60148   0.61459   0.61995
 Alpha virt. eigenvalues --    0.62379   0.63965   0.64307   0.65235   0.66205
 Alpha virt. eigenvalues --    0.66455   0.67791   0.68524   0.68955   0.71125
 Alpha virt. eigenvalues --    0.71522   0.72077   0.73348   0.75411   0.76571
 Alpha virt. eigenvalues --    0.77736   0.78031   0.79655   0.79977   0.81962
 Alpha virt. eigenvalues --    0.82297   0.84731   0.87266   0.88001   0.88488
 Alpha virt. eigenvalues --    0.88762   0.89258   0.90319   0.90750   0.90882
 Alpha virt. eigenvalues --    0.91258   0.91751   0.92502   0.92787   0.93557
 Alpha virt. eigenvalues --    0.95046   0.95355   0.95916   0.96981   0.97641
 Alpha virt. eigenvalues --    0.97847   0.98272   0.99308   0.99970   1.00344
 Alpha virt. eigenvalues --    1.01434   1.03170   1.03464   1.03810   1.04257
 Alpha virt. eigenvalues --    1.05118   1.05861   1.06765   1.07290   1.08134
 Alpha virt. eigenvalues --    1.09694   1.11229   1.13539   1.15294   1.20222
 Alpha virt. eigenvalues --    1.20549   1.23514   1.23995   1.25106   1.25866
 Alpha virt. eigenvalues --    1.27420   1.29628   1.33541   1.34764   1.38344
 Alpha virt. eigenvalues --    1.39709   1.41168   1.44141   1.45520   1.46151
 Alpha virt. eigenvalues --    1.47984   1.48991   1.54698   1.56088   1.57790
 Alpha virt. eigenvalues --    1.58602   1.59197   1.60410   1.63337   1.64111
 Alpha virt. eigenvalues --    1.64869   1.66063   1.66738   1.67752   1.69381
 Alpha virt. eigenvalues --    1.71437   1.73545   1.75982   1.76828   1.79178
 Alpha virt. eigenvalues --    1.80692   1.84344   1.85095   1.86253   1.87760
 Alpha virt. eigenvalues --    1.88408   1.89234   1.91038   1.91435   1.92476
 Alpha virt. eigenvalues --    1.93386   1.94237   1.95392   1.96401   1.97587
 Alpha virt. eigenvalues --    1.99291   1.99880   2.00229   2.01455   2.02013
 Alpha virt. eigenvalues --    2.02726   2.05772   2.06756   2.07472   2.08182
 Alpha virt. eigenvalues --    2.08960   2.09566   2.09945   2.10936   2.11346
 Alpha virt. eigenvalues --    2.12350   2.13308   2.14011   2.14519   2.15481
 Alpha virt. eigenvalues --    2.15806   2.16582   2.16888   2.18028   2.18708
 Alpha virt. eigenvalues --    2.19052   2.19071   2.20192   2.21209   2.21776
 Alpha virt. eigenvalues --    2.22998   2.24661   2.25092   2.26078   2.26802
 Alpha virt. eigenvalues --    2.28487   2.28603   2.29371   2.30648   2.32964
 Alpha virt. eigenvalues --    2.33580   2.36057   2.36893   2.37935   2.38284
 Alpha virt. eigenvalues --    2.39770   2.40356   2.41543   2.44320   2.45019
 Alpha virt. eigenvalues --    2.46882   2.49329   2.49986   2.50430   2.52906
 Alpha virt. eigenvalues --    2.53239   2.54356   2.56703   2.59300   2.63093
 Alpha virt. eigenvalues --    2.64005   2.64798   2.66610   2.67150   2.68881
 Alpha virt. eigenvalues --    2.69796   2.71641   2.73008   2.74407   2.75124
 Alpha virt. eigenvalues --    2.77710   2.78244   2.78843   2.78931   2.80105
 Alpha virt. eigenvalues --    2.81250   2.82777   2.84488   2.85818   2.87256
 Alpha virt. eigenvalues --    2.87536   2.89746   2.90231   2.90912   2.91486
 Alpha virt. eigenvalues --    2.92179   2.93030   2.93758   2.94729   2.95488
 Alpha virt. eigenvalues --    2.96650   2.96999   2.98915   2.99192   2.99959
 Alpha virt. eigenvalues --    3.01674   3.01818   3.02212   3.06810   3.12206
 Alpha virt. eigenvalues --    3.14458   3.23917   3.26881   3.28321   3.29391
 Alpha virt. eigenvalues --    3.29906   3.31873   3.32959   3.33515   3.36359
 Alpha virt. eigenvalues --    3.38413   3.39886   3.42361   3.45345   3.47061
 Alpha virt. eigenvalues --    3.47966   3.48712   3.49863   3.50820   3.53209
 Alpha virt. eigenvalues --    3.54617   3.54991   3.56844   3.57668   3.59272
 Alpha virt. eigenvalues --    3.59838   3.61479   3.64739   3.65834   8.56857
          Condensed to atoms (all electrons):
               1          2          3          4          5          6
     1  C    4.653206   0.344675   0.228289   0.366168  -0.033254  -0.025214
     2  C    0.344675   5.034951  -0.041740  -0.049453   0.370903   0.377531
     3  O    0.228289  -0.041740   8.381786  -0.042940   0.003029  -0.000010
     4  C    0.366168  -0.049453  -0.042940   5.012499   0.005558  -0.008402
     5  H   -0.033254   0.370903   0.003029   0.005558   0.593052  -0.029083
     6  H   -0.025214   0.377531  -0.000010  -0.008402  -0.029083   0.509753
     7  H   -0.028225   0.005312   0.000135   0.373883  -0.000183   0.000036
     8  H   -0.027281  -0.008199  -0.003819   0.382711   0.000057   0.004156
     9  H   -0.024320  -0.003690   0.002998   0.364542   0.000067   0.000216
    10  H    0.397756  -0.057518  -0.038560  -0.052662  -0.003506   0.005575
    11  Br  -0.047015   0.224234   0.002399  -0.004816  -0.040571  -0.036552
    12  C   -0.020698  -0.004012   0.198724  -0.004436   0.000517   0.000405
    13  O    0.003649  -0.000215  -0.096181  -0.000210  -0.000067   0.000063
    14  O    0.009391  -0.003286  -0.092179  -0.012775  -0.000472   0.013828
    15  N   -0.000002   0.000000   0.000192   0.000000   0.000000   0.000000
    16  C    0.000007  -0.000000  -0.000004  -0.000000   0.000000   0.000000
    17  C   -0.000000   0.000000   0.000002   0.000000   0.000000   0.000000
    18  H   -0.000028   0.000001   0.000063   0.000003  -0.000000  -0.000000
    19  H    0.000000  -0.000000  -0.000001   0.000000  -0.000000  -0.000000
    20  H   -0.000000   0.000000   0.000000   0.000000   0.000000   0.000000
    21  H    0.000000   0.000000  -0.000001  -0.000000  -0.000000  -0.000000
    22  H   -0.000000  -0.000000   0.000000   0.000000   0.000000   0.000000
    23  C    0.000000  -0.000000  -0.000003  -0.000000  -0.000000   0.000000
    24  C   -0.000000   0.000000   0.000000   0.000000   0.000000  -0.000000
    25  H   -0.000000   0.000000  -0.000000  -0.000000  -0.000000   0.000000
    26  H    0.000000  -0.000000   0.000000  -0.000000  -0.000000  -0.000000
    27  H    0.000000  -0.000000   0.000000   0.000000   0.000000   0.000000
    28  H    0.000000  -0.000000   0.000000   0.000000  -0.000000  -0.000000
    29  H    0.000000  -0.000000  -0.000000   0.000000  -0.000000  -0.000000
    30  C   -0.000010   0.000000   0.000214   0.000002  -0.000000   0.000000
    31  C    0.000219  -0.000024  -0.013092   0.000020   0.000000   0.000000
    32  H   -0.000001  -0.000000   0.000021   0.000000   0.000000   0.000000
    33  H    0.000000  -0.000000  -0.000004  -0.000000   0.000000   0.000000
    34  H    0.000021   0.000000   0.000086  -0.000016  -0.000000  -0.000000
    35  H   -0.000801   0.000247   0.032593  -0.000449  -0.000006  -0.000002
    36  H   -0.000010  -0.000000   0.000092   0.000007   0.000000   0.000000
    37  C    0.000017   0.000001  -0.012326  -0.000024  -0.000035   0.000002
    38  C    0.000012  -0.000006   0.000259   0.000000   0.000007  -0.000000
    39  H    0.000017  -0.000001  -0.000007  -0.000000  -0.000001  -0.000000
    40  H   -0.000119  -0.000044   0.028813   0.000215   0.000172  -0.000012
    41  H    0.000001  -0.000003   0.000159   0.000000   0.000054  -0.000000
    42  H    0.000000  -0.000000  -0.000003   0.000000  -0.000000  -0.000000
    43  H   -0.000004  -0.000005   0.000024  -0.000000  -0.000003  -0.000000
               7          8          9         10         11         12
     1  C   -0.028225  -0.027281  -0.024320   0.397756  -0.047015  -0.020698
     2  C    0.005312  -0.008199  -0.003690  -0.057518   0.224234  -0.004012
     3  O    0.000135  -0.003819   0.002998  -0.038560   0.002399   0.198724
     4  C    0.373883   0.382711   0.364542  -0.052662  -0.004816  -0.004436
     5  H   -0.000183   0.000057   0.000067  -0.003506  -0.040571   0.000517
     6  H    0.000036   0.004156   0.000216   0.005575  -0.036552   0.000405
     7  H    0.625565  -0.027293  -0.028547  -0.005371  -0.000089   0.000177
     8  H   -0.027293   0.533502  -0.022971   0.005164   0.000196   0.002777
     9  H   -0.028547  -0.022971   0.600641  -0.000957   0.006217   0.000125
    10  H   -0.005371   0.005164  -0.000957   0.664272  -0.000110   0.003080
    11  Br  -0.000089   0.000196   0.006217  -0.000110  35.114935   0.000280
    12  C    0.000177   0.002777   0.000125   0.003080   0.000280   4.093978
    13  O   -0.000013  -0.000095   0.000000  -0.000160   0.000001   0.520977
    14  O    0.000272   0.015475   0.000227   0.000115   0.000473   0.575185
    15  N    0.000000   0.000000  -0.000000  -0.000001   0.000000  -0.000034
    16  C    0.000001   0.000000   0.000000  -0.000001  -0.000000   0.000153
    17  C   -0.000000  -0.000000  -0.000000   0.000000  -0.000000   0.000011
    18  H   -0.000003  -0.000004  -0.000000   0.000001   0.000000  -0.002509
    19  H   -0.000000  -0.000000   0.000000  -0.000000  -0.000000   0.000019
    20  H   -0.000000  -0.000000  -0.000000   0.000000   0.000000   0.000005
    21  H   -0.000000  -0.000000  -0.000000  -0.000000   0.000000   0.000009
    22  H    0.000000   0.000000   0.000000   0.000000  -0.000000  -0.000001
    23  C   -0.000000   0.000000   0.000000   0.000000   0.000000  -0.000003
    24  C    0.000000  -0.000000  -0.000000  -0.000000  -0.000000   0.000000
    25  H    0.000000   0.000000   0.000000   0.000000   0.000000  -0.000000
    26  H    0.000000   0.000000  -0.000000  -0.000000  -0.000000   0.000000
    27  H    0.000000   0.000000   0.000000  -0.000000  -0.000000   0.000000
    28  H    0.000000   0.000000  -0.000000  -0.000000  -0.000000  -0.000000
    29  H    0.000000  -0.000000   0.000000  -0.000000   0.000000   0.000000
    30  C    0.000004  -0.000000  -0.000000  -0.000003  -0.000000  -0.000054
    31  C   -0.000074   0.000016  -0.000001   0.000245   0.000000  -0.000175
    32  H    0.000000   0.000000  -0.000000   0.000001  -0.000000   0.000003
    33  H   -0.000000   0.000000   0.000000   0.000000   0.000000  -0.000001
    34  H    0.000065  -0.000001  -0.000000  -0.000010  -0.000000   0.000021
    35  H    0.001101  -0.000091   0.000008  -0.000633  -0.000004  -0.000214
    36  H    0.000003   0.000001  -0.000000   0.000000   0.000000   0.000106
    37  C   -0.000000  -0.000000   0.000000   0.000196   0.000000  -0.002309
    38  C   -0.000000   0.000000  -0.000000  -0.000002   0.000000   0.000431
    39  H    0.000000  -0.000000   0.000000  -0.000009  -0.000000   0.000101
    40  H   -0.000013   0.000000  -0.000003  -0.000642  -0.000000  -0.000243
    41  H   -0.000000   0.000000  -0.000000  -0.000001  -0.000000   0.000045
    42  H   -0.000000   0.000000   0.000000   0.000000  -0.000000   0.000000
    43  H    0.000000   0.000000   0.000000   0.000002  -0.000000   0.000195
              13         14         15         16         17         18
     1  C    0.003649   0.009391  -0.000002   0.000007  -0.000000  -0.000028
     2  C   -0.000215  -0.003286   0.000000  -0.000000   0.000000   0.000001
     3  O   -0.096181  -0.092179   0.000192  -0.000004   0.000002   0.000063
     4  C   -0.000210  -0.012775   0.000000  -0.000000   0.000000   0.000003
     5  H   -0.000067  -0.000472   0.000000   0.000000   0.000000  -0.000000
     6  H    0.000063   0.013828   0.000000   0.000000   0.000000  -0.000000
     7  H   -0.000013   0.000272   0.000000   0.000001  -0.000000  -0.000003
     8  H   -0.000095   0.015475   0.000000   0.000000  -0.000000  -0.000004
     9  H    0.000000   0.000227  -0.000000   0.000000  -0.000000  -0.000000
    10  H   -0.000160   0.000115  -0.000001  -0.000001   0.000000   0.000001
    11  Br   0.000001   0.000473   0.000000  -0.000000  -0.000000   0.000000
    12  C    0.520977   0.575185  -0.000034   0.000153   0.000011  -0.002509
    13  O    8.168504  -0.068344  -0.001315  -0.040515   0.001401   0.069189
    14  O   -0.068344   8.081709  -0.000000  -0.000016   0.000000   0.000114
    15  N   -0.001315  -0.000000   6.878623   0.221026  -0.035137  -0.025096
    16  C   -0.040515  -0.000016   0.221026   5.031557   0.371756   0.330752
    17  C    0.001401   0.000000  -0.035137   0.371756   4.915406  -0.023970
    18  H    0.069189   0.000114  -0.025096   0.330752  -0.023970   0.443559
    19  H    0.000602   0.000000  -0.043212   0.386212  -0.041711  -0.018367
    20  H    0.000170  -0.000000   0.003242  -0.025135   0.387935  -0.003372
    21  H   -0.000091   0.000000  -0.002233  -0.030763   0.391956  -0.002862
    22  H   -0.000008  -0.000000  -0.003629  -0.034237   0.382763   0.003195
    23  C   -0.000030  -0.000000   0.252885  -0.042292  -0.003148   0.002465
    24  C    0.000000   0.000000  -0.038271   0.003938   0.000401  -0.000114
    25  H   -0.000003  -0.000000  -0.034445  -0.008090   0.003855   0.000001
    26  H    0.000001   0.000000  -0.039032  -0.000231  -0.003410   0.000120
    27  H   -0.000000  -0.000000   0.003291  -0.000069   0.000009   0.000002
    28  H   -0.000000   0.000000  -0.003022  -0.000014  -0.000019   0.000003
    29  H    0.000000   0.000000  -0.003766  -0.000112   0.000001  -0.000002
    30  C   -0.000328  -0.000000   0.248609  -0.038975   0.003354  -0.005085
    31  C    0.000406  -0.000006  -0.038177  -0.002125   0.000370   0.001656
    32  H   -0.000002   0.000000  -0.037248   0.004063  -0.000158  -0.000156
    33  H   -0.000001  -0.000000  -0.041508  -0.005315  -0.000097   0.000048
    34  H    0.000036  -0.000000   0.003639   0.000086  -0.000008   0.000187
    35  H    0.000906   0.000017  -0.002474  -0.002363  -0.000001   0.000798
    36  H   -0.000148  -0.000000  -0.003457   0.003235   0.000070  -0.001634
    37  C   -0.002851  -0.000022   0.225162  -0.034634  -0.002710   0.000300
    38  C   -0.010518   0.000006  -0.035394  -0.001649  -0.003787  -0.001211
    39  H    0.000456   0.000000  -0.041828   0.004592  -0.000164   0.000224
    40  H    0.013764   0.000154  -0.026349  -0.003995  -0.000143   0.000188
    41  H   -0.000069  -0.000000   0.003459  -0.000109   0.000274   0.000006
    42  H    0.000289  -0.000000  -0.004879  -0.000289  -0.001241  -0.000042
    43  H    0.021633  -0.000076  -0.002277   0.003592  -0.004332  -0.001378
              19         20         21         22         23         24
     1  C    0.000000  -0.000000   0.000000  -0.000000   0.000000  -0.000000
     2  C   -0.000000   0.000000   0.000000  -0.000000  -0.000000   0.000000
     3  O   -0.000001   0.000000  -0.000001   0.000000  -0.000003   0.000000
     4  C    0.000000   0.000000  -0.000000   0.000000  -0.000000   0.000000
     5  H   -0.000000   0.000000  -0.000000   0.000000  -0.000000   0.000000
     6  H   -0.000000   0.000000  -0.000000   0.000000   0.000000  -0.000000
     7  H   -0.000000  -0.000000  -0.000000   0.000000  -0.000000   0.000000
     8  H   -0.000000  -0.000000  -0.000000   0.000000   0.000000  -0.000000
     9  H    0.000000  -0.000000  -0.000000   0.000000   0.000000  -0.000000
    10  H   -0.000000   0.000000  -0.000000   0.000000   0.000000  -0.000000
    11  Br  -0.000000   0.000000   0.000000  -0.000000   0.000000  -0.000000
    12  C    0.000019   0.000005   0.000009  -0.000001  -0.000003   0.000000
    13  O    0.000602   0.000170  -0.000091  -0.000008  -0.000030   0.000000
    14  O    0.000000  -0.000000   0.000000  -0.000000  -0.000000   0.000000
    15  N   -0.043212   0.003242  -0.002233  -0.003629   0.252885  -0.038271
    16  C    0.386212  -0.025135  -0.030763  -0.034237  -0.042292   0.003938
    17  C   -0.041711   0.387935   0.391956   0.382763  -0.003148   0.000401
    18  H   -0.018367  -0.003372  -0.002862   0.003195   0.002465  -0.000114
    19  H    0.605084  -0.002212   0.004527  -0.005546  -0.004827  -0.000136
    20  H   -0.002212   0.539920  -0.020474  -0.027813   0.000133  -0.000007
    21  H    0.004527  -0.020474   0.551810  -0.032096  -0.002544  -0.000027
    22  H   -0.005546  -0.027813  -0.032096   0.614843   0.002209   0.000095
    23  C   -0.004827   0.000133  -0.002544   0.002209   4.864374   0.366340
    24  C   -0.000136  -0.000007  -0.000027   0.000095   0.366340   4.926114
    25  H   -0.000004   0.000069   0.000590  -0.000908   0.401716  -0.036364
    26  H    0.003510  -0.000024   0.000243   0.000561   0.397507  -0.037182
    27  H    0.000000  -0.000000   0.000000   0.000017  -0.026047   0.386368
    28  H    0.000001   0.000000   0.000003   0.000002  -0.031260   0.393017
    29  H   -0.000007   0.000000  -0.000001  -0.000005  -0.031770   0.391428
    30  C   -0.001467  -0.000061  -0.000006  -0.000160  -0.039913  -0.004408
    31  C   -0.005593   0.000005  -0.000019   0.000008   0.003759   0.000221
    32  H    0.000444   0.000003   0.000006  -0.000004  -0.006715   0.002267
    33  H    0.002980  -0.000001   0.000003  -0.000016  -0.000854  -0.002816
    34  H    0.000021  -0.000000   0.000000   0.000000  -0.000071   0.000000
    35  H    0.000119  -0.000000   0.000002  -0.000001  -0.000011  -0.000015
    36  H    0.001111   0.000014   0.000002  -0.000004  -0.000103   0.000003
    37  C    0.003860  -0.000007  -0.000124   0.000022  -0.036966  -0.004836
    38  C   -0.000092   0.000050   0.003717  -0.000019  -0.003174  -0.000953
    39  H   -0.000217   0.000004  -0.000022   0.000008  -0.008755   0.002766
    40  H    0.000165  -0.000003   0.000044  -0.000010   0.003453   0.000060
    41  H    0.000002  -0.000005   0.000079  -0.000007   0.000002   0.000018
    42  H   -0.000007   0.000021   0.000208  -0.000056   0.000325   0.000017
    43  H    0.000007   0.000249   0.001457   0.000114  -0.000225   0.000024
              25         26         27         28         29         30
     1  C   -0.000000   0.000000   0.000000   0.000000   0.000000  -0.000010
     2  C    0.000000  -0.000000  -0.000000  -0.000000  -0.000000   0.000000
     3  O   -0.000000   0.000000   0.000000   0.000000  -0.000000   0.000214
     4  C   -0.000000  -0.000000   0.000000   0.000000   0.000000   0.000002
     5  H   -0.000000  -0.000000   0.000000  -0.000000  -0.000000  -0.000000
     6  H    0.000000  -0.000000   0.000000  -0.000000  -0.000000   0.000000
     7  H    0.000000   0.000000   0.000000   0.000000   0.000000   0.000004
     8  H    0.000000   0.000000   0.000000   0.000000  -0.000000  -0.000000
     9  H    0.000000  -0.000000   0.000000  -0.000000   0.000000  -0.000000
    10  H    0.000000  -0.000000  -0.000000  -0.000000  -0.000000  -0.000003
    11  Br   0.000000  -0.000000  -0.000000  -0.000000   0.000000  -0.000000
    12  C   -0.000000   0.000000   0.000000  -0.000000   0.000000  -0.000054
    13  O   -0.000003   0.000001  -0.000000  -0.000000   0.000000  -0.000328
    14  O   -0.000000   0.000000  -0.000000   0.000000   0.000000  -0.000000
    15  N   -0.034445  -0.039032   0.003291  -0.003022  -0.003766   0.248609
    16  C   -0.008090  -0.000231  -0.000069  -0.000014  -0.000112  -0.038975
    17  C    0.003855  -0.003410   0.000009  -0.000019   0.000001   0.003354
    18  H    0.000001   0.000120   0.000002   0.000003  -0.000002  -0.005085
    19  H   -0.000004   0.003510   0.000000   0.000001  -0.000007  -0.001467
    20  H    0.000069  -0.000024  -0.000000   0.000000   0.000000  -0.000061
    21  H    0.000590   0.000243   0.000000   0.000003  -0.000001  -0.000006
    22  H   -0.000908   0.000561   0.000017   0.000002  -0.000005  -0.000160
    23  C    0.401716   0.397507  -0.026047  -0.031260  -0.031770  -0.039913
    24  C   -0.036364  -0.037182   0.386368   0.393017   0.391428  -0.004408
    25  H    0.551259  -0.030524  -0.002848  -0.004197   0.004187   0.004249
    26  H   -0.030524   0.573469  -0.002858   0.004270  -0.004189  -0.006661
    27  H   -0.002848  -0.002858   0.553802  -0.024155  -0.025092   0.000076
    28  H   -0.004197   0.004270  -0.024155   0.553237  -0.028516  -0.000900
    29  H    0.004187  -0.004189  -0.025092  -0.028516   0.564440   0.002871
    30  C    0.004249  -0.006661   0.000076  -0.000900   0.002871   4.886302
    31  C   -0.000147  -0.000082  -0.000003  -0.000017   0.000023   0.364608
    32  H   -0.000131  -0.000084   0.000078   0.000139  -0.000142   0.397960
    33  H    0.000210   0.004602  -0.000039   0.000112   0.001016   0.391913
    34  H    0.000003  -0.000003  -0.000000  -0.000000   0.000010  -0.027659
    35  H    0.000004   0.000004   0.000000   0.000000   0.000007  -0.025743
    36  H   -0.000003  -0.000021   0.000000  -0.000000  -0.000002  -0.033820
    37  C   -0.004505   0.004211   0.000134   0.000180  -0.000408  -0.039715
    38  C    0.002685   0.000053  -0.000010   0.000448   0.000022   0.003698
    39  H   -0.000472   0.000014   0.000046   0.001004  -0.000048  -0.006675
    40  H    0.000018  -0.000129  -0.000003   0.000014  -0.000016  -0.003449
    41  H   -0.000112   0.000000  -0.000000  -0.000007   0.000002  -0.000077
    42  H    0.002542  -0.000012  -0.000019   0.000474  -0.000010  -0.000046
    43  H   -0.000144  -0.000008   0.000001  -0.000016  -0.000000  -0.000004
              31         32         33         34         35         36
     1  C    0.000219  -0.000001   0.000000   0.000021  -0.000801  -0.000010
     2  C   -0.000024  -0.000000  -0.000000   0.000000   0.000247  -0.000000
     3  O   -0.013092   0.000021  -0.000004   0.000086   0.032593   0.000092
     4  C    0.000020   0.000000  -0.000000  -0.000016  -0.000449   0.000007
     5  H    0.000000   0.000000   0.000000  -0.000000  -0.000006   0.000000
     6  H    0.000000   0.000000   0.000000  -0.000000  -0.000002   0.000000
     7  H   -0.000074   0.000000  -0.000000   0.000065   0.001101   0.000003
     8  H    0.000016   0.000000   0.000000  -0.000001  -0.000091   0.000001
     9  H   -0.000001  -0.000000   0.000000  -0.000000   0.000008  -0.000000
    10  H    0.000245   0.000001   0.000000  -0.000010  -0.000633   0.000000
    11  Br   0.000000  -0.000000   0.000000  -0.000000  -0.000004   0.000000
    12  C   -0.000175   0.000003  -0.000001   0.000021  -0.000214   0.000106
    13  O    0.000406  -0.000002  -0.000001   0.000036   0.000906  -0.000148
    14  O   -0.000006   0.000000  -0.000000  -0.000000   0.000017  -0.000000
    15  N   -0.038177  -0.037248  -0.041508   0.003639  -0.002474  -0.003457
    16  C   -0.002125   0.004063  -0.005315   0.000086  -0.002363   0.003235
    17  C    0.000370  -0.000158  -0.000097  -0.000008  -0.000001   0.000070
    18  H    0.001656  -0.000156   0.000048   0.000187   0.000798  -0.001634
    19  H   -0.005593   0.000444   0.002980   0.000021   0.000119   0.001111
    20  H    0.000005   0.000003  -0.000001  -0.000000  -0.000000   0.000014
    21  H   -0.000019   0.000006   0.000003   0.000000   0.000002   0.000002
    22  H    0.000008  -0.000004  -0.000016   0.000000  -0.000001  -0.000004
    23  C    0.003759  -0.006715  -0.000854  -0.000071  -0.000011  -0.000103
    24  C    0.000221   0.002267  -0.002816   0.000000  -0.000015   0.000003
    25  H   -0.000147  -0.000131   0.000210   0.000003   0.000004  -0.000003
    26  H   -0.000082  -0.000084   0.004602  -0.000003   0.000004  -0.000021
    27  H   -0.000003   0.000078  -0.000039  -0.000000   0.000000   0.000000
    28  H   -0.000017   0.000139   0.000112  -0.000000   0.000000  -0.000000
    29  H    0.000023  -0.000142   0.001016   0.000010   0.000007  -0.000002
    30  C    0.364608   0.397960   0.391913  -0.027659  -0.025743  -0.033820
    31  C    4.973552  -0.032944  -0.034761   0.376108   0.368009   0.393099
    32  H   -0.032944   0.572500  -0.033809  -0.004840  -0.002305   0.004287
    33  H   -0.034761  -0.033809   0.592366  -0.001392   0.003386  -0.005844
    34  H    0.376108  -0.004840  -0.001392   0.582489  -0.018722  -0.028033
    35  H    0.368009  -0.002305   0.003386  -0.018722   0.477508  -0.021271
    36  H    0.393099   0.004287  -0.005844  -0.028033  -0.021271   0.562467
    37  C   -0.004391  -0.004481   0.004249   0.000077  -0.001094   0.000084
    38  C    0.000116   0.000164  -0.000195  -0.000001  -0.000101   0.000001
    39  H   -0.000435   0.004223   0.000132  -0.000014   0.000183  -0.000014
    40  H    0.000636  -0.000930   0.000096  -0.000050   0.001971  -0.000061
    41  H    0.000001  -0.000012   0.000003  -0.000000   0.000012  -0.000000
    42  H   -0.000003   0.000002   0.000001   0.000000  -0.000006   0.000000
    43  H   -0.000013   0.000006   0.000003  -0.000001   0.000011  -0.000005
              37         38         39         40         41         42
     1  C    0.000017   0.000012   0.000017  -0.000119   0.000001   0.000000
     2  C    0.000001  -0.000006  -0.000001  -0.000044  -0.000003  -0.000000
     3  O   -0.012326   0.000259  -0.000007   0.028813   0.000159  -0.000003
     4  C   -0.000024   0.000000  -0.000000   0.000215   0.000000   0.000000
     5  H   -0.000035   0.000007  -0.000001   0.000172   0.000054  -0.000000
     6  H    0.000002  -0.000000  -0.000000  -0.000012  -0.000000  -0.000000
     7  H   -0.000000  -0.000000   0.000000  -0.000013  -0.000000  -0.000000
     8  H   -0.000000   0.000000  -0.000000   0.000000   0.000000   0.000000
     9  H    0.000000  -0.000000   0.000000  -0.000003  -0.000000   0.000000
    10  H    0.000196  -0.000002  -0.000009  -0.000642  -0.000001   0.000000
    11  Br   0.000000   0.000000  -0.000000  -0.000000  -0.000000  -0.000000
    12  C   -0.002309   0.000431   0.000101  -0.000243   0.000045   0.000000
    13  O   -0.002851  -0.010518   0.000456   0.013764  -0.000069   0.000289
    14  O   -0.000022   0.000006   0.000000   0.000154  -0.000000  -0.000000
    15  N    0.225162  -0.035394  -0.041828  -0.026349   0.003459  -0.004879
    16  C   -0.034634  -0.001649   0.004592  -0.003995  -0.000109  -0.000289
    17  C   -0.002710  -0.003787  -0.000164  -0.000143   0.000274  -0.001241
    18  H    0.000300  -0.001211   0.000224   0.000188   0.000006  -0.000042
    19  H    0.003860  -0.000092  -0.000217   0.000165   0.000002  -0.000007
    20  H   -0.000007   0.000050   0.000004  -0.000003  -0.000005   0.000021
    21  H   -0.000124   0.003717  -0.000022   0.000044   0.000079   0.000208
[...]
 80,0.00003574,-0.00003940,-0.00006872,-0.00003913,0.00003723,-0.000107
 09,-0.00004405,-0.00064284,0.00028460,0.00010582,0.00021673,-0.0001509
 8,0.00280846,-0.00117532,0.00036629,-0.00034845,0.00007270,-0.00014898
 ,0.00000927,0.00073073,-0.00117862,-0.00033192,0.00002060,0.00011165,0
 .00001302,-0.00000682,-0.00009655,0.00010249,-0.00007032,0.00004758,0.
 00002661,0.00007243,0.00009842,0.01182118,-0.01239168,-0.05097862,-0.0
 2304709,0.02323769,0.00192027,-0.02154397,0.00883750,0.06085099,-0.001
 61589,-0.00029496,-0.00022774,-0.00008803,-0.00007116,0.00000029,-0.00
 300583,0.00218975,-0.00068186,0.00033444,0.00013096,-0.00002404,-0.000
 01388,-0.00006572,0.00010916,0.00009302,0.00006584,0.00000258,-0.00000
 313,-0.00002804,-0.00000342,0.00000092,0.00003812,0.00003045,-0.000012
 74,0.00009647,0.00012514,-0.00008955,-0.00009152,-0.00008601,0.0001079
 9,0.00009114,-0.00002818,0.00955309,0.00241324,0.00334356,-0.00230125,
 -0.00379684,-0.00121606,-0.00210448,-0.00035425,-0.00071780,-0.0134575
 7,-0.02535219,-0.00931214,0.00091911,-0.00116061,-0.00107712,-0.000129
 20,0.00022841,0.00002187,-0.00128863,-0.00012050,0.00052319,0.00019480
 ,0.00021398,-0.00004052,-0.00005684,-0.00000149,-0.00003186,-0.0000266
 3,-0.00004198,-0.00000158,0.00011915,0.00002549,0.00007973,-0.00302725
 ,0.00001792,0.00386623,-0.00015829,0.00041610,0.00041856,0.00000411,0.
 00012374,-0.00005162,-0.00032553,-0.00128236,-0.00054708,0.00029838,0.
 00007656,-0.00018457,0.00047802,-0.00016716,-0.00036983,0.00007917,0.0
 0000006,-0.00007358,0.00040171,-0.00003184,-0.00108049,-0.00006201,0.0
 0008893,-0.00004647,0.00005457,0.00020019,0.00031685,-0.00011311,0.000
 09885,-0.00014023,0.00007831,0.00018557,-0.00015079,0.00113105,0.00021
 604,-0.00007137,-0.00005057,-0.00009243,0.00009571,-0.07733891,-0.0619
 2674,-0.04065280,-0.00230030,-0.00720912,-0.00759382,0.01010116,0.0207
 6619,0.01360079,0.08297227,-0.00336396,0.00003934,-0.00038022,-0.00029
 169,0.00000120,0.00027521,0.00131557,-0.00224052,-0.00023108,0.0008566
 8,0.00040719,-0.00002693,-0.00005294,-0.00005387,0.00008440,-0.0000523
 3,-0.00001184,0.00000085,-0.00003893,-0.00007429,0.00000368,-0.0000879
 2,-0.00009028,-0.00010391,0.00003442,0.00019485,0.00028679,0.00031392,
 0.00001677,0.00009368,0.00055975,0.00014755,-0.00008076,0.00242276,-0.
 00692208,0.00041577,-0.00184236,-0.00078861,-0.00016721,-0.00015450,0.
 00237240,-0.00049155,-0.00547156,-0.01134301,-0.00311614,-0.00026270,0
 .00039004,0.00007897,0.00012713,-0.00015539,-0.00001195,0.00082906,0.0
 0147595,-0.00023679,0.00017406,-0.00013431,-0.00003794,0.00012169,0.00
 003315,-0.00001850,-0.00013155,0.00012956,0.00003474,-0.00001137,-0.00
 001207,-0.00002109,-0.00064923,0.00000973,0.00111746,-0.00012391,0.000
 19820,0.00002915,-0.00010191,-0.00006275,0.00004344,-0.00002142,-0.000
 09899,-0.00022849,-0.00000753,0.00001937,0.00002400,0.00001998,-0.0000
 1551,0.00001211,-0.00000966,-0.00004453,-0.00000150,-0.00040732,-0.000
 60662,0.00027139,0.00000495,-0.00003975,-0.00011385,0.00017692,-0.0004
 3203,0.00003458,0.00024403,0.00006717,-0.00034139,0.00007675,-0.000056
 85,-0.00016384,0.00036851,0.00183024,-0.00108084,0.00013365,0.00009864
 ,-0.00027648,-0.07143914,-0.22891358,-0.11747324,0.00512799,0.01170906
 ,0.00599838,-0.00487984,-0.01200029,-0.00875507,0.07437893,0.24446661,
 -0.00079274,0.00015093,-0.00048437,0.00011424,0.00014942,0.00026855,-0
 .00015235,-0.00063385,-0.00163477,0.00006991,0.00002279,-0.00003514,0.
 00003713,-0.00002010,-0.00005075,0.00000810,0.00000861,-0.00004577,-0.
 00000874,-0.00001001,-0.00004687,0.00000678,0.00002266,0.00001977,0.00
 000481,0.00002831,0.00003152,-0.00005095,0.00001015,0.00002513,0.00008
 980,0.00004438,-0.00007342,0.00298587,0.00004946,0.00190421,-0.0004859
 6,-0.00193409,-0.00193779,-0.00077495,0.00023030,-0.00023978,0.0102427
 4,0.02191242,0.00896188,-0.00129609,0.00073231,0.00052461,0.00011032,-
 0.00011997,-0.00015518,0.00033145,0.00006114,0.00029710,0.00011221,0.0
 0005168,-0.00003896,0.00003870,-0.00002308,0.00007469,0.00001763,-0.00
 005712,-0.00006800,-0.00007409,0.00001785,-0.00003555,0.00320640,0.001
 13126,-0.00359485,0.00030647,-0.00014500,0.00004311,0.00010240,0.00000
 237,-0.00001704,0.00061204,0.00135548,0.00060982,-0.00006405,0.0000438
 8,-0.00001342,-0.00013841,-0.00005862,-0.00003804,-0.00005692,0.000026
 77,-0.00002202,0.00077643,0.00102688,0.00153257,0.00082139,0.00070799,
 -0.00142033,-0.00010155,-0.00004392,0.00004952,-0.00017847,-0.00021917
 ,-0.00005966,-0.00018450,-0.00028340,0.00015413,0.00032586,-0.00032842
 ,-0.00408825,-0.00008719,-0.00017410,0.00007340,-0.04691987,-0.1255494
 8,-0.13156718,-0.01104596,-0.02142204,-0.01864460,-0.00025289,0.000819
 05,0.00029707,0.04300348,0.12068910,0.15207309,0.00000451,-0.00002501,
 0.00002103,0.00000630,0.00001790,0.00001449,0.00011438,0.00003579,-0.0
 0002130,-0.00000260,0.00000421,-0.00000413,0.00003874,-0.00000983,0.00
 000576,-0.00000182,0.00000645,0.00001431,0.00000094,0.00000058,-0.0000
 0591,-0.00000296,-0.00000069,0.00000150,0.00000145,-0.00000045,0.00000
 145,-0.00000144,0.00000489,-0.00000803,-0.00000740,0.00000389,-0.00001
 294,-0.00042777,-0.00018122,0.00019252,0.00052085,0.00046972,0.0000977
 9,0.00013649,0.00022763,-0.00011243,0.00099577,0.00156351,-0.00397933,
 -0.00046105,0.00037389,-0.00039537,-0.00035024,0.00017026,-0.00057775,
 -0.00000631,-0.00010470,-0.00010417,0.00012883,-0.00009987,0.00006076,
 -0.00009404,-0.00008154,0.00024241,0.00009401,-0.00021915,0.00070659,-
 0.00011480,-0.00006653,0.00021237,-0.00024915,-0.00025497,-0.00039802,
 0.00003059,0.00003640,0.00008984,0.00008076,0.00014044,0.00012276,0.00
 005510,0.00006074,0.00007093,-0.00002236,0.00001385,0.00000303,-0.0000
 0666,-0.00000860,0.00001840,0.00004111,-0.00003052,-0.00000630,0.00049
 308,0.00024331,-0.00012917,-0.00002481,0.00001809,0.00001520,-0.000030
 60,0.00001114,0.00002531,-0.00008108,0.00008943,-0.00019426,0.00000904
 ,-0.00002057,-0.00000495,-0.00000424,-0.00003263,-0.00001494,0.0000050
 5,-0.00000777,-0.00001404,0.00747547,0.00341247,-0.00467650,-0.2373259
 0,-0.06796772,0.11066483,0.00108279,0.00015078,0.00022273,0.00026395,-
 0.00029373,0.00044237,0.25362303,-0.00005131,0.00003727,-0.00003527,-0
 .00007679,-0.00007651,-0.00009453,-0.00010426,0.00001413,0.00008119,0.
 00000999,-0.00001241,0.00001578,-0.00003744,0.00004512,0.00002866,0.00
 000841,-0.00000298,-0.00000021,-0.00000508,-0.00000009,0.00001053,0.,-
 0.00000427,-0.00000860,0.00000380,0.00000437,0.00000153,0.00001079,-0.
 00000902,0.00001381,0.00006408,0.00000900,0.00002996,0.00034717,0.0000
 6294,-0.00020198,-0.00051578,-0.00038325,0.00002526,-0.00011845,-0.000
 15825,0.00011724,0.00110045,-0.00067681,0.00238939,0.00029467,-0.00026
 889,0.00014229,0.00022977,0.00030430,0.00011735,-0.00001871,0.00005397
 ,0.00019094,-0.00005898,0.00007542,-0.00001288,0.00002906,0.00000734,-
 0.00001867,-0.00015396,-0.00009208,-0.00028759,0.00014137,0.00005862,-
 0.00017410,-0.00021949,0.00032383,-0.00001199,-0.00014268,0.00002630,0
 .00015777,0.00030750,0.00015253,0.00007680,0.00006953,-0.00000664,0.00
 011612,0.00003118,-0.00000081,-0.00001660,0.00002745,-0.00005205,0.000
 01056,0.00006700,-0.00002333,-0.00001931,-0.00061373,-0.00018113,0.000
 09388,0.00006767,-0.00002291,0.00000728,0.00002654,-0.00003262,0.00001
 780,0.00011291,-0.00002522,0.00020443,-0.00000734,0.00002311,0.0000212
 5,-0.00000765,0.00002423,0.00000511,-0.00000232,0.00000121,0.00000418,
 -0.00965679,-0.00496288,0.00557709,-0.06603852,-0.06957016,0.03758904,
 -0.00030208,0.00005889,-0.00045824,0.00017020,0.00035350,-0.00019145,0
 .07229995,0.07190260,-0.00007473,-0.00005686,-0.00008612,-0.00009429,-
 0.00008329,-0.00012841,-0.00028663,0.00017741,0.00030149,0.00001157,0.
 00001207,-0.00000038,-0.00003461,-0.00002510,0.00007469,0.00002264,0.0
 0001588,0.00003015,-0.00000620,-0.00000274,0.00002190,-0.00000400,0.00
 000142,-0.00000094,0.00000447,0.00000727,0.00000966,-0.00000657,0.0000
 0423,-0.00002024,0.00006669,0.00003268,0.00002772,0.00060478,-0.000245
 63,-0.00006171,-0.00051519,-0.00028963,0.00010650,-0.00014655,0.000005
 92,0.00000879,-0.00279752,0.00152457,-0.00636364,-0.00095639,0.0002080
 9,0.00031015,-0.00023427,0.00012302,-0.00009574,0.00012586,0.00016110,
 0.00005893,0.00009746,-0.00001589,-0.00001254,-0.00000631,-0.00001421,
 0.00015562,0.00013430,-0.00012934,0.00012692,0.00002590,-0.00000848,0.
 00001213,-0.00053340,-0.00088543,-0.00038640,0.00010658,0.00007756,0.0
 0009699,0.00015140,0.00013012,0.00008773,0.00007418,0.00010855,0.00009
 201,-0.00004853,0.00003768,0.00001103,-0.00001498,0.00001485,0.0000069
 5,0.00002754,-0.00004336,-0.00000709,0.00157318,0.00084225,-0.00002989
 ,-0.00007414,0.00007664,0.00000746,-0.00006710,0.00006108,-0.00001770,
 -0.00023963,0.00014336,-0.00056606,0.00000051,-0.00005348,-0.00003131,
 0.00005066,0.00002513,-0.00004232,0.00000101,-0.00001613,0.00000569,0.
 02625392,0.00860449,-0.01387443,0.10810630,0.03796928,-0.11023870,0.00
 017322,0.00048813,0.00138765,0.00027135,-0.00045555,0.00055299,-0.1172
 1937,-0.04415569,0.11988763,0.00006566,0.00001099,0.00005273,0.0000369
 9,0.00003592,0.00004037,0.00027119,-0.00032867,-0.00005024,-0.00000271
 ,0.00000042,-0.00000483,0.00001362,0.00001855,-0.00002149,-0.00002012,
 -0.00001372,-0.00001068,0.00000259,0.00000029,0.00000002,-0.00000246,-
 0.00000719,-0.00000806,-0.00000167,-0.00000677,-0.00000311,0.00002088,
 0.00000297,0.00001151,-0.00002991,-0.00001798,-0.00000684,-0.00104394,
 -0.00015843,-0.00006738,0.00050277,0.00055650,0.00098779,0.00021805,0.
 00013280,-0.00002277,0.00083297,0.00070099,0.00003634,-0.00004091,0.00
 021001,0.00013202,-0.00005648,0.00016929,0.00006109,0.00002375,0.00013
 984,-0.00006321,0.00001349,-0.00004187,-0.00005044,0.00006360,-0.00000
 964,-0.00003627,-0.00063563,0.00037859,0.00048063,0.00002624,0.0000032
 7,-0.00003926,-0.00018730,-0.00078428,0.00002334,0.00014618,0.00020316
 ,-0.00002487,0.00025472,-0.00083954,0.00084896,0.00008532,0.00018186,0
 .00019525,-0.00001334,0.00004002,-0.00000395,-0.00020619,0.00010777,-0
 .00014668,-0.00005856,-0.00004269,0.00007802,0.00010352,-0.00007483,0.
 00023455,-0.00003599,0.00001501,-0.00003597,-0.00003185,-0.00004321,-0
 .00001504,0.00002180,0.00003635,-0.00007477,0.00000745,0.00000002,-0.0
 0003113,0.00001238,0.00007351,0.00004575,0.00001864,0.00001824,-0.0000
 0862,-0.00545407,-0.00740568,-0.00235082,-0.10016466,-0.08040546,-0.06
 698269,-0.00016161,-0.00019233,0.00005299,0.00047109,0.00178342,-0.001
 28124,-0.01091355,-0.01883074,-0.01631561,0.10458381,0.00015937,0.0000
 9943,0.00006359,0.00011571,0.00003231,0.00004708,-0.00044957,0.0001844
 3,-0.00020398,-0.00003288,-0.00002927,-0.00001122,0.00002179,-0.000002
 62,-0.00002482,0.00001593,0.00001179,-0.00000814,0.00000534,0.00000809
 ,-0.00000982,0.00001588,0.00001942,0.00002894,-0.00001506,-0.00000787,
 -0.00001660,-0.00004098,-0.00000541,-0.00001274,-0.00010387,-0.0000222
 8,-0.00001583,0.00146912,0.00097235,0.00033100,-0.00047649,-0.00105710
 ,-0.00166599,-0.00031025,-0.00053082,0.00000919,-0.00066477,0.00024498
 ,-0.00102152,-0.00034338,0.00002412,-0.00001487,-0.00027967,0.00046675
 ,-0.00036770,-0.00012298,-0.00028882,0.00018412,0.00010755,0.00005766,
 0.00005372,-0.00011348,-0.00009123,0.00025681,0.00006721,-0.00039565,0
 .00015169,0.00000969,-0.00001030,0.00006844,-0.00078255,-0.00076343,0.
 00051923,-0.00005137,0.00011255,0.00005660,-0.00044043,-0.00082904,0.0
 0123327,0.00008483,0.00015591,0.00001552,-0.00000799,0.00000836,0.0000
 0600,0.00009296,-0.00002920,-0.00005412,0.00008476,0.00001440,-0.00003
 518,0.00030835,0.00013561,-0.00017692,-0.00000226,0.00008208,0.0000057
 5,0.00001667,-0.00000276,0.00001653,-0.00002952,0.00001439,-0.00010826
 ,-0.00000007,-0.00000899,-0.00000360,-0.00001396,-0.00008930,0.0000399
 6,-0.00000522,-0.00002635,0.00001027,0.00702993,0.01124172,0.00668917,
 -0.08087997,-0.18715543,-0.10492021,-0.00023485,0.00044726,-0.00072499
 ,0.00055905,-0.00052162,0.00240947,-0.00282409,-0.00704504,-0.00495765
 ,0.09285909,0.19842118,0.00027178,0.00006283,0.00003858,0.00003719,-0.
 00001627,-0.00004184,-0.00019582,-0.00053368,-0.00009655,-0.00005632,-
 0.00003836,-0.00000060,-0.00001418,0.00000517,-0.00000762,0.00000347,-
 0.00000154,0.00000317,0.00000148,0.00000895,0.00000769,0.00000703,0.00
 000366,0.00000689,-0.00000704,-0.00001565,-0.00002387,-0.00000306,0.00
 000764,0.00000376,-0.00004910,-0.00001732,0.00001480,-0.00003960,0.000
 55121,-0.00020872,0.00013607,-0.00043913,-0.00012159,-0.00000943,-0.00
 032282,0.00009809,0.00021963,-0.00112311,0.00174260,-0.00014864,0.0000
 9737,-0.00041443,-0.00012527,0.00033508,-0.00019414,-0.00024361,-0.000
 12908,0.00010808,0.00012718,-0.00001530,0.00004554,-0.00007454,-0.0000
 1587,0.00022563,0.00038631,-0.00045670,0.00015733,0.00010190,0.0000086
 0,0.00002197,-0.00050067,-0.00004511,-0.00109034,0.00003588,0.00024670
 ,0.00031150,0.00121253,0.00120296,-0.00015774,0.00022081,0.00005237,0.
 00046016,-0.00000064,0.00003819,-0.00001497,-0.00011348,0.00008219,-0.
 00013706,0.00007649,-0.00014990,0.00004441,-0.00026712,-0.00005124,0.0
 0002675,0.00004549,-0.00006522,-0.00000230,0.00003699,-0.00012914,0.00
 007655,0.00014058,0.00010267,-0.00003180,0.00003813,0.00006725,-0.0000
 2381,0.00002348,0.00014871,0.00015321,0.00004056,0.00003828,-0.0000630
 2,-0.01311904,-0.02395910,-0.01615220,-0.06549606,-0.10446929,-0.13105
 200,0.00035490,0.00041783,0.00069809,-0.00170451,0.00379403,-0.0044156
 6,0.00617467,0.01176554,0.01004612,0.07289921,0.11367162,0.14183877,-0
 .00022523,-0.00005508,-0.00005730,-0.00009290,-0.00002665,-0.00003579,
 0.00028172,-0.00020774,0.00017524,0.00004368,0.00003130,0.00001141,-0.
 00003846,0.00002672,0.00001806,-0.00002301,-0.00002105,-0.00000736,-0.
 00000523,-0.00000803,0.00001158,-0.00001517,-0.00002476,-0.00003270,0.
 00001076,0.00000866,0.00001891,0.00004435,-0.00000166,0.00002223,0.000
 10196,0.00001107,0.00002091,-0.00148203,-0.00114465,-0.00073131,-0.000
 23664,0.00091123,0.00206977,0.00027159,0.00044229,-0.00005659,0.000534
 65,-0.00037304,-0.00031210,0.00035789,-0.00005146,-0.00015383,-0.00142
 701,-0.00063765,0.00033838,0.00029330,0.00032295,0.00019334,-0.0000438
 9,0.00006548,-0.00011415,-0.00014036,-0.00002812,0.00014248,-0.0019773
 2,-0.00147286,0.00085239,-0.00006714,0.00005730,-0.00007861,-0.0004223
 6,-0.00030083,-0.00018035,0.00000492,0.00014360,0.00007627,0.00023314,
 -0.00003988,0.00000986,0.00009037,-0.00001597,0.00012746,0.00002656,0.
 00004077,-0.00002281,-0.00004280,0.00000604,-0.00010961,-0.00000790,-0
 .00002560,0.00002168,0.00004518,0.00010164,0.00018134,0.00003966,0.000
 00095,-0.00000221,0.00002362,-0.00004310,0.00002528,0.00001679,-0.0000
 1618,-0.00006079,-0.00001197,-0.00001396,0.00000052,-0.00001238,0.0000
 8211,-0.00004693,0.00000203,0.00000110,0.00000373,-0.00668232,0.006021
 28,0.00044861,-0.14805082,0.13281643,0.01445639,0.00084526,0.00066235,
 -0.00196236,-0.00008670,0.00062533,0.00018040,-0.01507343,0.02154263,0
 .00179247,0.01126424,-0.01479758,-0.00042366,0.16163341,-0.00023769,-0
 .00016003,-0.00010587,-0.00012186,0.00001302,0.00001733,0.00105754,-0.
 00039347,0.00040151,0.00005047,0.00005133,0.00000078,-0.00001309,0.000
 01494,0.00001261,-0.00004499,-0.00002653,-0.00000309,-0.00000473,-0.00
 001504,0.00000771,-0.00003227,-0.00003945,-0.00005455,0.00002000,0.000
 00918,0.00002735,0.00007693,0.00000940,0.00002900,0.00014463,0.0000178
 2,-0.00000036,-0.00299345,-0.00189221,-0.00101925,0.00121150,-0.000696
 80,0.00052670,0.00050764,0.00075028,0.00011700,0.00023926,-0.00021348,
 -0.00067373,0.00013355,-0.00047275,0.00078078,0.00044817,0.00011613,0.
 00073440,0.00026010,0.00073891,0.00008009,-0.00011557,0.00007952,-0.00
 014966,0.00024412,0.00009487,-0.00032803,-0.00118406,-0.00001051,-0.00
 064007,0.00026609,0.00013882,-0.00042495,-0.00018825,-0.00022990,0.000
 01182,-0.00000947,0.00007845,-0.00005955,0.00019364,-0.00015956,-0.000
 00319,0.00003305,-0.00002612,0.00010592,-0.00000627,0.00001003,0.00000
 174,-0.00005940,0.00005408,-0.00002130,-0.00002430,0.00001251,0.000011
 76,0.00014343,0.00006878,0.00032155,0.00000464,0.00002065,-0.00002593,
 -0.00008962,0.00004115,-0.00004243,-0.00005912,0.00000934,-0.00002614,
 -0.00001690,-0.00002191,-0.00000825,0.00001129,0.00010284,-0.00005094,
 0.00000280,0.00002270,0.00002219,0.00647610,-0.00777884,0.00142434,0.1
 3448511,-0.23348679,-0.02129665,0.00011075,0.00069306,0.00106305,-0.00
 070281,0.00065830,-0.00049082,-0.00712575,0.01006863,0.00058565,0.0115
 2416,-0.01384225,-0.00071501,-0.14461538,0.24559089,-0.00040969,-0.000
 24201,-0.00007101,-0.00015302,0.00004521,0.00004697,0.00163114,-0.0005
 9592,0.00052620,0.00009333,0.00007992,0.00000623,0.00000821,-0.0000119
 1,0.00000838,-0.00007372,-0.00003800,0.00002261,-0.00000734,-0.0000183
 1,-0.00000191,-0.00004883,-0.00006357,-0.00007765,0.00003190,0.0000155
 8,0.00004306,0.00013126,0.00001791,0.00004277,0.00019398,0.00002172,-0
 .00001868,-0.00529488,-0.00291419,-0.00072924,0.00296837,0.00183441,0.
 00106208,0.00126894,0.00190485,-0.00022381,0.00000696,-0.00003504,0.00
 095399,0.00010224,0.00083889,-0.00008389,0.00086695,0.00004815,0.00005
 869,0.00045849,0.00055013,-0.00092277,-0.00001546,-0.00033195,-0.00000
 528,0.00016769,0.00006140,-0.00008398,0.00035296,0.00024787,0.00013831
 ,-0.00003454,-0.00003517,-0.00006498,-0.00011785,-0.00012470,-0.000128
 44,-0.00002332,0.00005243,0.00015265,0.00004026,-0.00002166,0.00001081
 ,0.00004707,0.00004693,0.00003038,0.00008261,0.00003568,-0.00004534,0.
 00003592,-0.00008189,-0.00014843,-0.00001818,-0.00004449,0.00002333,-0
 .00017213,0.00012185,-0.00010577,0.00004537,-0.00001713,0.00001098,0.0
 0022328,-0.00016827,0.00008024,0.00014728,-0.00007428,-0.00009335,0.00
 001289,-0.00003879,-0.00000331,-0.00005581,0.00016606,-0.00008276,0.00
 002153,-0.00001492,-0.00007579,-0.02252842,0.02618601,0.00249528,0.018
 48301,-0.02510816,-0.05179283,-0.00189802,0.00195976,-0.00594849,0.000
 30654,0.00052658,0.00123426,0.00845785,-0.01312366,-0.00146329,0.01147
 541,-0.01151384,-0.00187944,-0.01681024,0.01985651,0.05710323\\-0.0000
 0020,0.00000043,-0.00000035,-0.00000053,0.00000041,-0.00000045,-0.0000
 0016,0.00000003,-0.00000019,-0.00000026,0.00000040,-0.00000039,-0.0000
 0052,0.00000034,-0.00000045,-0.00000065,0.00000030,-0.00000045,-0.0000
 0008,0.00000036,-0.00000031,-0.00000038,0.00000026,-0.00000034,-0.0000
 0029,0.00000053,-0.00000051,-0.00000014,0.00000045,-0.00000041,-0.0000
 0053,0.00000067,-0.00000069,-0.00000029,0.00000052,-0.00000018,-0.0000
 0043,-0.00000032,-0.00000001,-0.00000058,-0.00000021,-0.00000014,0.000
 00021,-0.00000013,0.00000016,0.00000009,-0.00000029,0.00000021,0.,-0.0
 0000048,0.00000038,0.,-0.00000022,0.00000022,0.00000026,-0.00000032,0.
 00000035,-0.00000007,-0.00000058,0.00000044,-0.00000015,-0.00000048,0.
 00000034,0.00000012,-0.00000056,0.00000048,0.00000033,-0.00000023,0.00
 000026,0.00000044,-0.00000007,0.00000020,0.00000018,-0.00000031,0.0000
 0031,0.00000044,-0.00000030,0.00000038,0.00000052,-0.00000015,0.000000
 29,0.00000034,0.00000001,0.00000009,0.00000060,0.00000003,0.00000016,0
 .00000040,0.00000002,0.00000013,0.00000032,0.00000005,0.00000004,0.000
 00044,0.00000013,0.00000002,0.00000054,-0.00000005,0.00000021,0.000000
 46,0.00000020,-0.00000001,0.00000016,0.00000014,-0.00000006,0.00000030
 ,-0.00000002,0.00000013,0.00000002,-0.00000005,0.,-0.00000021,-0.00000
 015,0.00000006,0.00000011,0.00000008,-0.00000003,-0.00000006,0.0000000
 8,-0.00000003,-0.00000029,-0.00000004,-0.00000006,-0.00000016,-0.00000
 023,0.00000014,-0.00000031,-0.00000022,0.00000008\\\@


 MARY HAD A LITTLE LAMB
      HIS FEET WERE BLACK AS SOOT,
           AND EVERYWHERE THAT MARY WENT
                HIS SOOTY FOOT HE PUT.

                    -- NONAME
 Job cpu time:       0 days  7 hours 19 minutes 43.3 seconds.
 Elapsed time:       0 days  0 hours  7 minutes  7.5 seconds.
 File lengths (MBytes):  RWF=    813 Int=      0 D2E=      0 Chk=     15 Scr=      2
 Normal termination of Gaussian 16 at Mon Mar 13 14:11:40 2023.
