 Entering Gaussian System, Link 0=g16
 Input=6_test_opt_freq_from_IRC_re.com
 Output=6_test_opt_freq_from_IRC_re.log
 Initial command:
 /opt/ohpc/pub/apps/gaussian/avx2/g16/l1.exe "/scratch/g16-tmp/Gau-2267010.inp" -scrdir="/scratch/g16-tmp/"
 Entering Link 1 = /opt/ohpc/pub/apps/gaussian/avx2/g16/l1.exe PID=   2267011.
  
 Copyright (c) 1988-2017, Gaussian, Inc.  All Rights Reserved.
  
 This is part of the Gaussian(R) 16 program.  It is based on
 the Gaussian(R) 09 system (copyright 2009, Gaussian, Inc.),
 the Gaussian(R) 03 system (copyright 2003, Gaussian, Inc.),
 the Gaussian(R) 98 system (copyright 1998, Gaussian, Inc.),
 the Gaussian(R) 94 system (copyright 1995, Gaussian, Inc.),
 the Gaussian 92(TM) system (copyright 1992, Gaussian, Inc.),
 the Gaussian 90(TM) system (copyright 1990, Gaussian, Inc.),
 the Gaussian 88(TM) system (copyright 1988, Gaussian, Inc.),
 the Gaussian 86(TM) system (copyright 1986, Carnegie Mellon
 University), and the Gaussian 82(TM) system (copyright 1983,
 Carnegie Mellon University). Gaussian is a federally registered
 trademark of Gaussian, Inc.
  
 This software contains proprietary and confidential information,
 including trade secrets, belonging to Gaussian, Inc.
  
 This software is provided under written license and may be
 used, copied, transmitted, or stored only in accord with that
 written license.
  
 The following legend is applicable only to US Government
 contracts under FAR:
  
                    RESTRICTED RIGHTS LEGEND
  
 Use, reproduction and disclosure by the US Government is
 subject to restrictions as set forth in subparagraphs (a)
 and (c) of the Commercial Computer Software - Restricted
 Rights clause in FAR 52.227-19.
  
 Gaussian, Inc.
 340 Quinnipiac St., Bldg. 40, Wallingford CT 06492
  
  
 ---------------------------------------------------------------
 Warning -- This program may not be used in any manner that
 competes with the business of Gaussian, Inc. or will provide
 assistance to any competitor of Gaussian, Inc.  The licensee
 of this program is prohibited from giving any competitor of
 Gaussian, Inc. access to this program.  By using this program,
 the user acknowledges that Gaussian, Inc. is engaged in the
 business of creating and licensing software in the field of
 computational chemistry and represents and warrants to the
 licensee that it is not a competitor of Gaussian, Inc. and that
 it will not use this program in any manner prohibited above.
 ---------------------------------------------------------------
  

 Cite this work as:
 Gaussian 16, Revision B.01,
 M. J. Frisch, G. W. Trucks, H. B. Schlegel, G. E. Scuseria, 
 M. A. Robb, J. R. Cheeseman, G. Scalmani, V. Barone, 
 G. A. Petersson, H. Nakatsuji, X. Li, M. Caricato, A. V. Marenich, 
 J. Bloino, B. G. Janesko, R. Gomperts, B. Mennucci, H. P. Hratchian, 
 J. V. Ortiz, A. F. Izmaylov, J. L. Sonnenberg, D. Williams-Young, 
 F. Ding, F. Lipparini, F. Egidi, J. Goings, B. Peng, A. Petrone, 
 T. Henderson, D. Ranasinghe, V. G. Zakrzewski, J. Gao, N. Rega, 
 G. Zheng, W. Liang, M. Hada, M. Ehara, K. Toyota, R. Fukuda, 
 J. Hasegawa, M. Ishida, T. Nakajima, Y. Honda, O. Kitao, H. Nakai, 
 T. Vreven, K. Throssell, J. A. Montgomery, Jr., J. E. Peralta, 
 F. Ogliaro, M. J. Bearpark, J. J. Heyd, E. N. Brothers, K. N. Kudin, 
 V. N. Staroverov, T. A. Keith, R. Kobayashi, J. Normand, 
 K. Raghavachari, A. P. Rendell, J. C. Burant, S. S. Iyengar, 
 J. Tomasi, M. Cossi, J. M. Millam, M. Klene, C. Adamo, R. Cammi, 
 J. W. Ochterski, R. L. Martin, K. Morokuma, O. Farkas, 
 J. B. Foresman, and D. J. Fox, Gaussian, Inc., Wallingford CT, 2016.
 
 ******************************************
 Gaussian 16:  ES64L-G16RevB.01 20-Dec-2017
                13-Mar-2023 
 ******************************************
 %nprocshared=64
 Will use up to   64 processors via shared memory.
 %mem=64GB
 %chk=6_test_opt_freq_from_IRC_re.chk
 ------------------------------------------------------------------
 # opt=(calcfc,tight) freq cam-b3lyp/gen nosymm pseudo=read scf=xqc
 ------------------------------------------------------------------
 1/7=10,10=4,18=20,19=15,26=3,38=1/1,3;
 2/9=110,12=2,15=1,17=6,18=5,40=1/2;
 3/5=7,11=2,16=1,17=8,25=1,30=1,71=2,74=-40,140=1/1,2,3;
 4//1;
 5/5=2,8=3,13=1,38=5/2,8;
 8/6=4,10=90,11=11/1;
 11/6=1,8=1,9=11,15=111,16=1,31=1/1,2,10;
 10/6=1,13=1,31=1/2;
 6/7=2,8=2,9=2,10=2,28=1/1;
 7/10=1,18=20,25=1,30=1/1,2,3,16;
 1/7=10,10=4,18=20,19=15,26=3/3(2);
 2/9=110,15=1/2;
 99//99;
 2/9=110,15=1/2;
 3/5=7,6=1,11=2,16=1,17=8,25=1,30=1,71=1,74=-40,82=7/1,2,3;
 4/5=5,16=3,69=1/1;
 5/5=2,8=3,13=1,38=5/2,8;
 7/30=1/1,2,3,16;
 1/7=10,18=20,19=15,26=3/3(-5);
 2/9=110,15=1/2;
 6/7=2,8=2,9=2,10=2,19=2,28=1/1;
 99/9=1/99;
 ---------------------------
 6_test_opt_freq_from_IRC_re
 ---------------------------
 Symbolic Z-matrix:
 Charge =  0 Multiplicity = 1
 C                     1.01836   1.46975   0.71699 
 C                     0.71035   2.59669  -0.26821 
 O                    -0.16993   0.60912   0.5609 
 C                     1.14929   1.90129   2.15685 
 H                     1.237     2.48291  -1.21335 
 H                     0.90492   3.58825   0.13008 
 H                     1.21179   1.03559   2.82185 
 H                     0.30488   2.52645   2.46573 
 H                     2.07964   2.47016   2.22439 
 H                     1.89247   0.91092   0.3921 
 Br                    3.86045   2.64825  -0.09705 
 C                    -1.13455   1.27657  -0.08641 
 O                    -2.24001   0.81207  -0.28109 
 O                    -0.72917   2.4622   -0.495 
 N                    -2.16139  -2.91809  -0.03358 
 C                    -3.3726   -2.00883   0.18353 
 C                    -4.43237  -1.98382  -0.90731 
 H                    -2.97017  -1.00486   0.3312 
 H                    -3.82984  -2.3589    1.11123 
 H                    -5.15276  -1.21629  -0.61458 
 H                    -4.04552  -1.69677  -1.88321 
 H                    -4.97947  -2.92379  -1.00164 
 C                    -2.60983  -4.20601  -0.68512 
 C                    -1.55129  -5.28454  -0.84839 
 H                    -3.01724  -3.93701  -1.65738 
 H                    -3.43634  -4.57461  -0.07299 
 H                    -2.02787  -6.13724  -1.33769 
 H                    -0.72301  -4.97195  -1.48638 
 H                    -1.15059  -5.64095   0.10143 
 C                    -1.57488  -3.24611   1.3334 
 C                    -1.35859  -2.06764   2.27013 
 H                    -0.62767  -3.75008   1.1423 
 H                    -2.2581   -3.97102   1.78335 
 H                    -0.81948  -2.4465    3.14192 
 H                    -0.76194  -1.2663    1.83268 
 H                    -2.29591  -1.6398    2.62688 
 C                    -1.06632  -2.23529  -0.84228 
 C                    -1.44275  -1.73355  -2.22374 
 H                    -0.25599  -2.96234  -0.90202 
 H                    -0.72133  -1.39702  -0.24062 
 H                    -0.5171   -1.40049  -2.70011 
 H                    -1.87759  -2.5001   -2.86969 
 H                    -2.10097  -0.86716  -2.16729 
 
 Add virtual bond connecting atoms H18        and O13        Dist= 3.88D+00.
 Add virtual bond connecting atoms Br11       and H10        Dist= 5.05D+00.

 GradGradGradGradGradGradGradGradGradGradGradGradGradGradGradGradGradGrad
 Berny optimization.
 Initialization pass.
                           ----------------------------
                           !    Initial Parameters    !
                           ! (Angstroms and Degrees)  !
 --------------------------                            --------------------------
 ! Name  Definition              Value          Derivative Info.                !
 --------------------------------------------------------------------------------
 ! R1    R(1,2)                  1.5282         calculate D2E/DX2 analytically  !
 ! R2    R(1,3)                  1.4755         calculate D2E/DX2 analytically  !
 ! R3    R(1,4)                  1.5088         calculate D2E/DX2 analytically  !
 ! R4    R(1,10)                 1.0872         calculate D2E/DX2 analytically  !
 ! R5    R(2,5)                  1.0879         calculate D2E/DX2 analytically  !
 ! R6    R(2,6)                  1.0861         calculate D2E/DX2 analytically  !
 ! R7    R(2,14)                 1.4635         calculate D2E/DX2 analytically  !
 ! R8    R(3,12)                 1.3398         calculate D2E/DX2 analytically  !
 ! R9    R(4,7)                  1.0934         calculate D2E/DX2 analytically  !
 ! R10   R(4,8)                  1.0951         calculate D2E/DX2 analytically  !
 ! R11   R(4,9)                  1.0926         calculate D2E/DX2 analytically  !
 ! R12   R(10,11)                2.6703         calculate D2E/DX2 analytically  !
 ! R13   R(12,13)                1.2148         calculate D2E/DX2 analytically  !
 ! R14   R(12,14)                1.318          calculate D2E/DX2 analytically  !
 ! R15   R(13,18)                2.0516         calculate D2E/DX2 analytically  !
 ! R16   R(15,16)                1.53           calculate D2E/DX2 analytically  !
 ! R17   R(15,23)                1.5114         calculate D2E/DX2 analytically  !
 ! R18   R(15,30)                1.5232         calculate D2E/DX2 analytically  !
 ! R19   R(15,37)                1.523          calculate D2E/DX2 analytically  !
 ! R20   R(16,17)                1.5211         calculate D2E/DX2 analytically  !
 ! R21   R(16,18)                1.0917         calculate D2E/DX2 analytically  !
 ! R22   R(16,19)                1.0919         calculate D2E/DX2 analytically  !
 ! R23   R(17,20)                1.0926         calculate D2E/DX2 analytically  !
 ! R24   R(17,21)                1.0883         calculate D2E/DX2 analytically  !
 ! R25   R(17,22)                1.0917         calculate D2E/DX2 analytically  !
 ! R26   R(23,24)                1.52           calculate D2E/DX2 analytically  !
 ! R27   R(23,25)                1.088          calculate D2E/DX2 analytically  !
 ! R28   R(23,26)                1.0926         calculate D2E/DX2 analytically  !
 ! R29   R(24,27)                1.0925         calculate D2E/DX2 analytically  !
 ! R30   R(24,28)                1.0912         calculate D2E/DX2 analytically  !
 ! R31   R(24,29)                1.0908         calculate D2E/DX2 analytically  !
 ! R32   R(30,31)                1.5209         calculate D2E/DX2 analytically  !
 ! R33   R(30,32)                1.0898         calculate D2E/DX2 analytically  !
 ! R34   R(30,33)                1.093          calculate D2E/DX2 analytically  !
 ! R35   R(31,34)                1.0928         calculate D2E/DX2 analytically  !
 ! R36   R(31,35)                1.0906         calculate D2E/DX2 analytically  !
 ! R37   R(31,36)                1.0904         calculate D2E/DX2 analytically  !
 ! R38   R(37,38)                1.5172         calculate D2E/DX2 analytically  !
 ! R39   R(37,39)                1.0903         calculate D2E/DX2 analytically  !
 ! R40   R(37,40)                1.088          calculate D2E/DX2 analytically  !
 ! R41   R(38,41)                1.093          calculate D2E/DX2 analytically  !
 ! R42   R(38,42)                1.0927         calculate D2E/DX2 analytically  !
 ! R43   R(38,43)                1.0895         calculate D2E/DX2 analytically  !
 ! A1    A(2,1,3)              101.5142         calculate D2E/DX2 analytically  !
 ! A2    A(2,1,4)              114.9466         calculate D2E/DX2 analytically  !
 ! A3    A(2,1,10)             110.3929         calculate D2E/DX2 analytically  !
 ! A4    A(3,1,4)              109.7348         calculate D2E/DX2 analytically  !
 ! A5    A(3,1,10)             108.4268         calculate D2E/DX2 analytically  !
 ! A6    A(4,1,10)             111.2489         calculate D2E/DX2 analytically  !
 ! A7    A(1,2,5)              112.6663         calculate D2E/DX2 analytically  !
 ! A8    A(1,2,6)              113.6223         calculate D2E/DX2 analytically  !
 ! A9    A(1,2,14)             103.3196         calculate D2E/DX2 analytically  !
 ! A10   A(5,2,6)              109.107          calculate D2E/DX2 analytically  !
 ! A11   A(5,2,14)             109.3852         calculate D2E/DX2 analytically  !
 ! A12   A(6,2,14)             108.4778         calculate D2E/DX2 analytically  !
 ! A13   A(1,3,12)             109.8998         calculate D2E/DX2 analytically  !
 ! A14   A(1,4,7)              111.0325         calculate D2E/DX2 analytically  !
 ! A15   A(1,4,8)              111.4399         calculate D2E/DX2 analytically  !
 ! A16   A(1,4,9)              106.3682         calculate D2E/DX2 analytically  !
 ! A17   A(7,4,8)              108.9353         calculate D2E/DX2 analytically  !
 ! A18   A(7,4,9)              109.0233         calculate D2E/DX2 analytically  !
 ! A19   A(8,4,9)              109.9942         calculate D2E/DX2 analytically  !
 ! A20   A(1,10,11)            108.2323         calculate D2E/DX2 analytically  !
 ! A21   A(3,12,13)            122.8291         calculate D2E/DX2 analytically  !
 ! A22   A(3,12,14)            112.1164         calculate D2E/DX2 analytically  !
 ! A23   A(13,12,14)           125.0437         calculate D2E/DX2 analytically  !
 ! A24   A(12,13,18)           127.9272         calculate D2E/DX2 analytically  !
 ! A25   A(2,14,12)            109.7053         calculate D2E/DX2 analytically  !
 ! A26   A(16,15,23)           109.4328         calculate D2E/DX2 analytically  !
 ! A27   A(16,15,30)           107.7851         calculate D2E/DX2 analytically  !
 ! A28   A(16,15,37)           112.2181         calculate D2E/DX2 analytically  !
 ! A29   A(23,15,30)           108.5178         calculate D2E/DX2 analytically  !
 ! A30   A(23,15,37)           111.4985         calculate D2E/DX2 analytically  !
 ! A31   A(30,15,37)           107.231          calculate D2E/DX2 analytically  !
 ! A32   A(15,16,17)           117.3589         calculate D2E/DX2 analytically  !
 ! A33   A(15,16,18)           105.8972         calculate D2E/DX2 analytically  !
 ! A34   A(15,16,19)           105.1608         calculate D2E/DX2 analytically  !
 ! A35   A(17,16,18)           109.8            calculate D2E/DX2 analytically  !
 ! A36   A(17,16,19)           108.8337         calculate D2E/DX2 analytically  !
 ! A37   A(18,16,19)           109.5293         calculate D2E/DX2 analytically  !
 ! A38   A(16,17,20)           106.1884         calculate D2E/DX2 analytically  !
 ! A39   A(16,17,21)           113.5629         calculate D2E/DX2 analytically  !
 ! A40   A(16,17,22)           113.3899         calculate D2E/DX2 analytically  !
 ! A41   A(20,17,21)           106.8172         calculate D2E/DX2 analytically  !
 ! A42   A(20,17,22)           107.3123         calculate D2E/DX2 analytically  !
 ! A43   A(21,17,22)           109.1326         calculate D2E/DX2 analytically  !
 ! A44   A(13,18,16)           154.8617         calculate D2E/DX2 analytically  !
 ! A45   A(15,23,24)           116.38           calculate D2E/DX2 analytically  !
 ! A46   A(15,23,25)           106.5983         calculate D2E/DX2 analytically  !
 ! A47   A(15,23,26)           105.6893         calculate D2E/DX2 analytically  !
 ! A48   A(24,23,25)           109.8914         calculate D2E/DX2 analytically  !
 ! A49   A(24,23,26)           110.3417         calculate D2E/DX2 analytically  !
 ! A50   A(25,23,26)           107.5066         calculate D2E/DX2 analytically  !
 ! A51   A(23,24,27)           107.3446         calculate D2E/DX2 analytically  !
 ! A52   A(23,24,28)           112.8381         calculate D2E/DX2 analytically  !
 ! A53   A(23,24,29)           113.2129         calculate D2E/DX2 analytically  !
 ! A54   A(27,24,28)           107.0273         calculate D2E/DX2 analytically  !
 ! A55   A(27,24,29)           107.1705         calculate D2E/DX2 analytically  !
 ! A56   A(28,24,29)           108.898          calculate D2E/DX2 analytically  !
 ! A57   A(15,30,31)           116.1439         calculate D2E/DX2 analytically  !
 ! A58   A(15,30,32)           106.0735         calculate D2E/DX2 analytically  !
 ! A59   A(15,30,33)           105.7572         calculate D2E/DX2 analytically  !
 ! A60   A(31,30,32)           110.0427         calculate D2E/DX2 analytically  !
 ! A61   A(31,30,33)           110.4416         calculate D2E/DX2 analytically  !
 ! A62   A(32,30,33)           107.9855         calculate D2E/DX2 analytically  !
 ! A63   A(30,31,34)           107.0299         calculate D2E/DX2 analytically  !
 ! A64   A(30,31,35)           113.5837         calculate D2E/DX2 analytically  !
 ! A65   A(30,31,36)           112.5392         calculate D2E/DX2 analytically  !
 ! A66   A(34,31,35)           107.7478         calculate D2E/DX2 analytically  !
 ! A67   A(34,31,36)           107.4036         calculate D2E/DX2 analytically  !
 ! A68   A(35,31,36)           108.2529         calculate D2E/DX2 analytically  !
 ! A69   A(15,37,38)           116.9601         calculate D2E/DX2 analytically  !
 ! A70   A(15,37,39)           105.3389         calculate D2E/DX2 analytically  !
 ! A71   A(15,37,40)           106.2472         calculate D2E/DX2 analytically  !
 ! A72   A(38,37,39)           110.7952         calculate D2E/DX2 analytically  !
 ! A73   A(38,37,40)           109.1111         calculate D2E/DX2 analytically  !
 ! A74   A(39,37,40)           107.9636         calculate D2E/DX2 analytically  !
 ! A75   A(37,38,41)           106.7079         calculate D2E/DX2 analytically  !
 ! A76   A(37,38,42)           113.8918         calculate D2E/DX2 analytically  !
 ! A77   A(37,38,43)           111.4502         calculate D2E/DX2 analytically  !
 ! A78   A(41,38,42)           107.0465         calculate D2E/DX2 analytically  !
 ! A79   A(41,38,43)           106.9718         calculate D2E/DX2 analytically  !
 ! A80   A(42,38,43)           110.3688         calculate D2E/DX2 analytically  !
 ! D1    D(3,1,2,5)           -100.194          calculate D2E/DX2 analytically  !
 ! D2    D(3,1,2,6)            135.0683         calculate D2E/DX2 analytically  !
 ! D3    D(3,1,2,14)            17.7439         calculate D2E/DX2 analytically  !
 ! D4    D(4,1,2,5)            141.4582         calculate D2E/DX2 analytically  !
 ! D5    D(4,1,2,6)             16.7206         calculate D2E/DX2 analytically  !
 ! D6    D(4,1,2,14)          -100.6039         calculate D2E/DX2 analytically  !
 ! D7    D(10,1,2,5)            14.6333         calculate D2E/DX2 analytically  !
 ! D8    D(10,1,2,6)          -110.1043         calculate D2E/DX2 analytically  !
 ! D9    D(10,1,2,14)          132.5712         calculate D2E/DX2 analytically  !
 ! D10   D(2,1,3,12)           -14.5322         calculate D2E/DX2 analytically  !
 ! D11   D(4,1,3,12)           107.4985         calculate D2E/DX2 analytically  !
 ! D12   D(10,1,3,12)         -130.8086         calculate D2E/DX2 analytically  !
 ! D13   D(2,1,4,7)            171.0816         calculate D2E/DX2 analytically  !
 ! D14   D(2,1,4,8)             49.4465         calculate D2E/DX2 analytically  !
 ! D15   D(2,1,4,9)            -70.4347         calculate D2E/DX2 analytically  !
 ! D16   D(3,1,4,7)             57.4558         calculate D2E/DX2 analytically  !
 ! D17   D(3,1,4,8)            -64.1793         calculate D2E/DX2 analytically  !
 ! D18   D(3,1,4,9)            175.9395         calculate D2E/DX2 analytically  !
 ! D19   D(10,1,4,7)           -62.5318         calculate D2E/DX2 analytically  !
 ! D20   D(10,1,4,8)           175.8331         calculate D2E/DX2 analytically  !
 ! D21   D(10,1,4,9)            55.9519         calculate D2E/DX2 analytically  !
 ! D22   D(2,1,10,11)           51.1582         calculate D2E/DX2 analytically  !
 ! D23   D(3,1,10,11)          161.5432         calculate D2E/DX2 analytically  !
 ! D24   D(4,1,10,11)          -77.6972         calculate D2E/DX2 analytically  !
 ! D25   D(1,2,14,12)          -16.3808         calculate D2E/DX2 analytically  !
 ! D26   D(5,2,14,12)          103.8259         calculate D2E/DX2 analytically  !
 ! D27   D(6,2,14,12)         -137.2633         calculate D2E/DX2 analytically  !
 ! D28   D(1,3,12,13)         -176.1427         calculate D2E/DX2 analytically  !
 ! D29   D(1,3,12,14)            5.002          calculate D2E/DX2 analytically  !
 ! D30   D(3,12,13,18)           2.1126         calculate D2E/DX2 analytically  !
 ! D31   D(14,12,13,18)       -179.1828         calculate D2E/DX2 analytically  !
 ! D32   D(3,12,14,2)            7.7303         calculate D2E/DX2 analytically  !
 ! D33   D(13,12,14,2)        -171.0948         calculate D2E/DX2 analytically  !
 ! D34   D(12,13,18,16)       -117.0453         calculate D2E/DX2 analytically  !
 ! D35   D(23,15,16,17)        -38.5786         calculate D2E/DX2 analytically  !
 ! D36   D(23,15,16,18)       -161.5305         calculate D2E/DX2 analytically  !
 ! D37   D(23,15,16,19)         82.5386         calculate D2E/DX2 analytically  !
 ! D38   D(30,15,16,17)       -156.4092         calculate D2E/DX2 analytically  !
 ! D39   D(30,15,16,18)         80.6389         calculate D2E/DX2 analytically  !
 ! D40   D(30,15,16,19)        -35.292          calculate D2E/DX2 analytically  !
 ! D41   D(37,15,16,17)         85.7466         calculate D2E/DX2 analytically  !
 ! D42   D(37,15,16,18)        -37.2053         calculate D2E/DX2 analytically  !
 ! D43   D(37,15,16,19)       -153.1362         calculate D2E/DX2 analytically  !
 ! D44   D(16,15,23,24)       -174.1289         calculate D2E/DX2 analytically  !
 ! D45   D(16,15,23,25)         62.9052         calculate D2E/DX2 analytically  !
 ! D46   D(16,15,23,26)        -51.2851         calculate D2E/DX2 analytically  !
 ! D47   D(30,15,23,24)        -56.7577         calculate D2E/DX2 analytically  !
 ! D48   D(30,15,23,25)       -179.7236         calculate D2E/DX2 analytically  !
 ! D49   D(30,15,23,26)         66.0861         calculate D2E/DX2 analytically  !
 ! D50   D(37,15,23,24)         61.1265         calculate D2E/DX2 analytically  !
 ! D51   D(37,15,23,25)        -61.8394         calculate D2E/DX2 analytically  !
 ! D52   D(37,15,23,26)       -176.0297         calculate D2E/DX2 analytically  !
 ! D53   D(16,15,30,31)        -48.1861         calculate D2E/DX2 analytically  !
 ! D54   D(16,15,30,32)       -170.7841         calculate D2E/DX2 analytically  !
 ! D55   D(16,15,30,33)         74.6848         calculate D2E/DX2 analytically  !
 ! D56   D(23,15,30,31)       -166.6053         calculate D2E/DX2 analytically  !
 ! D57   D(23,15,30,32)         70.7966         calculate D2E/DX2 analytically  !
 ! D58   D(23,15,30,33)        -43.7344         calculate D2E/DX2 analytically  !
 ! D59   D(37,15,30,31)         72.8287         calculate D2E/DX2 analytically  !
 ! D60   D(37,15,30,32)        -49.7693         calculate D2E/DX2 analytically  !
 ! D61   D(37,15,30,33)       -164.3004         calculate D2E/DX2 analytically  !
 ! D62   D(16,15,37,38)        -58.1705         calculate D2E/DX2 analytically  !
 ! D63   D(16,15,37,39)        178.2873         calculate D2E/DX2 analytically  !
 ! D64   D(16,15,37,40)         63.8911         calculate D2E/DX2 analytically  !
 ! D65   D(23,15,37,38)         65.0007         calculate D2E/DX2 analytically  !
 ! D66   D(23,15,37,39)        -58.5415         calculate D2E/DX2 analytically  !
 ! D67   D(23,15,37,40)       -172.9377         calculate D2E/DX2 analytically  !
 ! D68   D(30,15,37,38)       -176.3433         calculate D2E/DX2 analytically  !
 ! D69   D(30,15,37,39)         60.1145         calculate D2E/DX2 analytically  !
 ! D70   D(30,15,37,40)        -54.2817         calculate D2E/DX2 analytically  !
 ! D71   D(15,16,17,20)       -174.7344         calculate D2E/DX2 analytically  !
 ! D72   D(15,16,17,21)        -57.6517         calculate D2E/DX2 analytically  !
 ! D73   D(15,16,17,22)         67.6735         calculate D2E/DX2 analytically  !
 ! D74   D(18,16,17,20)        -53.7985         calculate D2E/DX2 analytically  !
 ! D75   D(18,16,17,21)         63.2842         calculate D2E/DX2 analytically  !
 ! D76   D(18,16,17,22)       -171.3907         calculate D2E/DX2 analytically  !
 ! D77   D(19,16,17,20)         66.0818         calculate D2E/DX2 analytically  !
 ! D78   D(19,16,17,21)       -176.8355         calculate D2E/DX2 analytically  !
 ! D79   D(19,16,17,22)        -51.5103         calculate D2E/DX2 analytically  !
 ! D80   D(15,16,18,13)         83.5697         calculate D2E/DX2 analytically  !
 ! D81   D(17,16,18,13)        -44.0486         calculate D2E/DX2 analytically  !
 ! D82   D(19,16,18,13)       -163.5041         calculate D2E/DX2 analytically  !
 ! D83   D(15,23,24,27)       -179.5052         calculate D2E/DX2 analytically  !
 ! D84   D(15,23,24,28)        -61.8336         calculate D2E/DX2 analytically  !
 ! D85   D(15,23,24,29)         62.4303         calculate D2E/DX2 analytically  !
 ! D86   D(25,23,24,27)        -58.2702         calculate D2E/DX2 analytically  !
 ! D87   D(25,23,24,28)         59.4014         calculate D2E/DX2 analytically  !
 ! D88   D(25,23,24,29)       -176.3347         calculate D2E/DX2 analytically  !
 ! D89   D(26,23,24,27)         60.1101         calculate D2E/DX2 analytically  !
 ! D90   D(26,23,24,28)        177.7816         calculate D2E/DX2 analytically  !
 ! D91   D(26,23,24,29)        -57.9544         calculate D2E/DX2 analytically  !
 ! D92   D(15,30,31,34)       -172.7672         calculate D2E/DX2 analytically  !
 ! D93   D(15,30,31,35)        -53.9787         calculate D2E/DX2 analytically  !
 ! D94   D(15,30,31,36)         69.4703         calculate D2E/DX2 analytically  !
 ! D95   D(32,30,31,34)        -52.278          calculate D2E/DX2 analytically  !
 ! D96   D(32,30,31,35)         66.5105         calculate D2E/DX2 analytically  !
 ! D97   D(32,30,31,36)       -170.0405         calculate D2E/DX2 analytically  !
 ! D98   D(33,30,31,34)         66.8489         calculate D2E/DX2 analytically  !
 ! D99   D(33,30,31,35)       -174.3626         calculate D2E/DX2 analytically  !
 ! D100  D(33,30,31,36)        -50.9136         calculate D2E/DX2 analytically  !
 ! D101  D(15,37,38,41)       -172.6328         calculate D2E/DX2 analytically  !
 ! D102  D(15,37,38,42)        -54.7466         calculate D2E/DX2 analytically  !
 ! D103  D(15,37,38,43)         70.9192         calculate D2E/DX2 analytically  !
 ! D104  D(39,37,38,41)        -51.927          calculate D2E/DX2 analytically  !
 ! D105  D(39,37,38,42)         65.9592         calculate D2E/DX2 analytically  !
 ! D106  D(39,37,38,43)       -168.375          calculate D2E/DX2 analytically  !
 ! D107  D(40,37,38,41)         66.8066         calculate D2E/DX2 analytically  !
 ! D108  D(40,37,38,42)       -175.3073         calculate D2E/DX2 analytically  !
 ! D109  D(40,37,38,43)        -49.6414         calculate D2E/DX2 analytically  !
 --------------------------------------------------------------------------------
 Trust Radius=3.00D-01 FncErr=1.00D-07 GrdErr=1.00D-06 EigMax=2.50D+02 EigMin=1.00D-04
 Number of steps in this run=    242 maximum allowed number of steps=    258.
 GradGradGradGradGradGradGradGradGradGradGradGradGradGradGradGradGradGrad

                          Input orientation:                          
 ---------------------------------------------------------------------
 Center     Atomic      Atomic             Coordinates (Angstroms)
 Number     Number       Type             X           Y           Z
 ---------------------------------------------------------------------
      1          6           0        1.018355    1.469748    0.716987
      2          6           0        0.710347    2.596691   -0.268205
      3          8           0       -0.169934    0.609120    0.560897
      4          6           0        1.149291    1.901294    2.156845
      5          1           0        1.236998    2.482908   -1.213352
      6          1           0        0.904918    3.588246    0.130080
      7          1           0        1.211792    1.035593    2.821850
      8          1           0        0.304877    2.526447    2.465730
      9          1           0        2.079639    2.470157    2.224392
     10          1           0        1.892473    0.910915    0.392103
     11         35           0        3.860447    2.648248   -0.097051
     12          6           0       -1.134554    1.276567   -0.086407
     13          8           0       -2.240008    0.812074   -0.281085
     14          8           0       -0.729169    2.462199   -0.494999
     15          7           0       -2.161390   -2.918088   -0.033581
     16          6           0       -3.372602   -2.008827    0.183525
     17          6           0       -4.432369   -1.983822   -0.907305
     18          1           0       -2.970169   -1.004856    0.331200
     19          1           0       -3.829836   -2.358896    1.111229
     20          1           0       -5.152764   -1.216294   -0.614582
     21          1           0       -4.045525   -1.696765   -1.883208
     22          1           0       -4.979468   -2.923790   -1.001642
     23          6           0       -2.609826   -4.206007   -0.685117
     24          6           0       -1.551285   -5.284543   -0.848385
     25          1           0       -3.017244   -3.937011   -1.657382
     26          1           0       -3.436344   -4.574611   -0.072985
     27          1           0       -2.027866   -6.137241   -1.337692
     28          1           0       -0.723011   -4.971947   -1.486382
     29          1           0       -1.150591   -5.640953    0.101432
     30          6           0       -1.574881   -3.246112    1.333404
     31          6           0       -1.358593   -2.067635    2.270127
     32          1           0       -0.627665   -3.750075    1.142296
     33          1           0       -2.258103   -3.971019    1.783348
     34          1           0       -0.819484   -2.446499    3.141924
     35          1           0       -0.761944   -1.266296    1.832675
     36          1           0       -2.295905   -1.639799    2.626880
     37          6           0       -1.066319   -2.235294   -0.842283
     38          6           0       -1.442745   -1.733550   -2.223740
     39          1           0       -0.255994   -2.962342   -0.902020
     40          1           0       -0.721334   -1.397022   -0.240620
     41          1           0       -0.517095   -1.400491   -2.700108
     42          1           0       -1.877587   -2.500101   -2.869689
     43          1           0       -2.100971   -0.867161   -2.167293
 ---------------------------------------------------------------------
                    Distance matrix (angstroms):
                    1          2          3          4          5
     1  C    0.000000
     2  C    1.528225   0.000000
     3  O    1.475492   2.326530   0.000000
     4  C    1.508830   2.560687   2.440721   0.000000
     5  H    2.191006   1.087939   2.939132   3.421139   0.000000
     6  H    2.201218   1.086126   3.196264   2.648264   1.771118
     7  H    2.157859   3.498130   2.683832   1.093424   4.286982
     8  H    2.164201   2.764732   2.744080   1.095108   3.795575
     9  H    2.097477   2.846755   3.360246   1.092573   3.539532
    10  H    1.087164   2.162237   2.091194   2.155802   2.340576
    11  Br   3.182610   3.155167   4.564527   3.603936   2.855862
    12  C    2.306031   2.275838   1.339769   3.261658   2.889554
    13  O    3.470679   3.448133   2.243954   4.314771   3.968675
    14  O    2.346851   1.463465   2.204895   3.297803   2.093388
    15  N    5.470579   6.222115   4.093959   6.243798   6.489350
    16  C    5.627217   6.171331   4.153690   6.295280   6.585997
    17  C    6.654011   6.916435   5.200704   7.459093   7.224061
    18  H    4.709652   5.184267   3.240215   5.361776   5.678943
    19  H    6.190226   6.861045   4.744140   6.635830   7.383735
    20  H    6.860802   7.002493   5.435300   7.557517   7.407542
    21  H    6.513885   6.607595   5.129421   7.500278   6.769300
    22  H    7.630907   7.961635   6.168841   8.415412   8.241459
    23  C    6.880682   7.581165   5.539952   7.714067   7.734253
    24  C    7.394179   8.219820   6.215261   8.243832   8.260812
    25  H    7.152393   7.649445   5.804760   8.123678   7.714344
    26  H    7.550012   8.286177   6.159733   8.242423   8.541027
    27  H    8.447926   9.215377   7.250513   9.323313   9.218556
    28  H    7.027277   7.798894   5.970390   8.001254   7.713044
    29  H    7.459578   8.453313   6.343202   8.148599   8.568918
    30  C    5.417027   6.475011   4.175339   5.881748   6.871266
    31  C    4.535990   5.699086   3.391076   4.696244   6.291197
    32  H    5.489701   6.637863   4.421552   6.010395   6.919257
    33  H    6.440050   7.493689   5.180011   6.799551   7.927743
    34  H    4.959331   6.277191   4.052212   4.873373   6.891778
    35  H    3.449661   4.637241   2.342025   3.713695   5.227866
    36  H    4.929634   5.947009   3.720978   4.962827   6.650225
    37  C    4.528192   5.180172   3.295923   5.569116   5.263496
    38  C    4.996600   5.216408   3.855172   6.254620   5.097100
    39  H    4.887594   5.677886   3.860424   5.914933   5.654794
    40  H    3.487391   4.242666   2.229591   4.486197   4.453665
    41  H    4.719366   4.837172   3.846194   6.104803   4.513100
    42  H    6.083619   6.280319   4.934800   7.334870   6.105282
    43  H    4.848753   4.848537   3.653947   6.076736   4.824417
                    6          7          8          9         10
     6  H    0.000000
     7  H    3.722343   0.000000
     8  H    2.634906   1.781000   0.000000
     9  H    2.648818   1.779912   1.791980   0.000000
    10  H    2.865663   2.526369   3.070885   2.413203   0.000000
    11  Br   3.109716   4.258640   4.384605   2.931227   2.670303
    12  C    3.090335   3.744512   3.185524   4.134669   3.086352
    13  O    4.215062   4.646837   4.118314   5.261749   4.188120
    14  O    2.080612   4.099271   3.136765   3.909546   3.172765
    15  N    7.194540   5.929877   6.478579   7.219277   5.592520
    16  C    7.044662   6.102944   6.269053   7.345296   6.024069
    17  C    7.785290   7.408105   7.359442   8.488327   7.076128
    18  H    6.012764   5.277837   5.268040   6.415641   5.226775
    19  H    7.664793   6.314016   6.541949   7.712378   6.629753
    20  H    7.767473   7.575463   7.299471   8.599846   7.427907
    21  H    7.516086   7.565893   7.461553   8.470729   6.872907
    22  H    8.849486   8.284172   8.345781   9.451611   7.991937
    23  C    8.588850   7.374141   7.984314   8.661841   6.900289
    24  C    9.258332   7.813408   8.685635   9.097304   7.195970
    25  H    8.672247   7.916758   8.355407   9.060805   7.197784
    26  H    9.247704   7.839619   8.418244   9.237574   7.661827
    27  H   10.263560   8.902063   9.745112  10.180734   8.248500
    28  H    8.862280   7.641653   8.538247   8.775512   6.706529
    29  H    9.455372   7.586685   8.626396   8.985068   7.229917
    30  C    7.369250   5.321092   6.175604   6.842887   5.494494
    31  C    6.456955   4.067100   4.889886   5.693425   4.792511
    32  H    7.564678   5.395102   6.481963   6.869622   5.351515
    33  H    8.359455   6.179387   7.017947   7.778128   6.557143
    34  H    6.961531   4.043945   5.143114   5.781028   5.117466
    35  H    5.407757   3.189482   3.990459   4.710533   3.723093
    36  H    6.619043   4.415844   4.914025   6.016570   5.389145
    37  C    6.224539   5.414274   5.957962   6.437610   4.491858
    38  C    6.274831   6.338194   6.572129   7.061460   4.995949
    39  H    6.732247   5.657304   6.463986   6.688922   4.614411
    40  H    5.256901   4.362719   4.875556   5.373714   3.543854
    41  H    5.909279   6.278183   6.540823   6.780534   4.550866
    42  H    7.335456   7.378280   7.648270   8.143265   6.040502
    43  H    5.844993   6.283822   6.226522   6.921133   5.065536
                   11         12         13         14         15
    11  Br   0.000000
    12  C    5.179928   0.000000
    13  O    6.373457   1.214776   0.000000
    14  O    4.610591   1.317956   2.247511   0.000000
    15  N    8.200649   4.318832   3.739191   5.586739   0.000000
    16  C    8.607210   3.984412   3.075080   5.238149   1.530008
    17  C    9.533278   4.709522   3.607718   5.800930   2.606452
    18  H    7.757956   2.957832   2.051649   4.210125   2.108944
    19  H    9.255911   4.681396   3.810662   5.952904   2.099285
    20  H    9.820412   4.758081   3.565059   5.754459   3.490270
    21  H    9.196406   4.532433   3.481517   5.497483   2.909075
    22  H   10.488565   5.767497   4.688339   6.879724   2.979721
    23  C    9.444102   5.709072   5.047885   6.930944   1.511400
    24  C    9.632264   6.618341   6.161567   7.798254   2.576091
    25  H    9.648985   5.761413   5.005207   6.894658   2.099386
    26  H   10.267104   6.287663   5.521857   7.551396   2.090724
    27  H   10.648767   7.571543   7.032382   8.737684   3.475842
    28  H    9.000317   6.416637   6.099911   7.499960   2.897913
    29  H    9.688176   6.920088   6.555510   8.135994   2.907565
    30  C    8.144475   4.760712   4.417900   6.053355   1.523234
    31  C    7.421689   4.097210   3.946935   5.344295   2.583568
    32  H    7.913133   5.199402   5.043696   6.425215   2.104092
    33  H    9.207999   5.682913   5.209625   6.993911   2.102201
    34  H    7.638662   4.937875   4.934894   6.109884   3.479503
    35  H    6.357200   3.207470   3.312443   4.395545   2.858282
    36  H    7.981718   4.149199   3.804085   5.387688   2.954686
    37  C    6.976917   3.592934   3.313448   4.722363   1.522953
    38  C    7.200473   3.704589   3.299960   4.593696   2.591597
    39  H    7.005125   4.405161   4.309070   5.460330   2.094440
    40  H    6.113717   2.709725   2.681066   3.867603   2.104820
    41  H    6.506233   3.792008   3.703450   4.452848   3.480973
    42  H    8.192561   4.749945   4.219327   5.619825   2.880758
    43  H    7.223746   3.140003   2.529218   3.970270   2.960182
                   16         17         18         19         20
    16  C    0.000000
    17  C    1.521066   0.000000
    18  H    1.091658   2.151813   0.000000
    19  H    1.091900   2.139674   1.783507   0.000000
    20  H    2.105721   1.092591   2.388081   2.456441   0.000000
    21  H    2.195813   1.088318   2.557094   3.074344   1.751069
    22  H    2.196314   1.091676   3.081567   2.470826   1.759372
    23  C    2.482734   2.882557   3.377886   2.850807   3.925544
    24  C    3.887461   4.381652   4.660512   4.194197   5.438379
    25  H    2.689444   2.525894   3.543192   3.288763   3.612503
    26  H    2.579362   2.898335   3.622683   2.542949   3.810212
    27  H    4.600676   4.818481   5.478550   4.849763   5.873976
    28  H    4.311496   4.798287   4.908272   4.819541   5.872621
    29  H    4.258687   5.016196   4.985685   4.355450   6.008966
    30  C    2.466758   3.844397   2.823910   2.433380   4.551490
    31  C    2.900620   4.421674   2.736076   2.744981   4.841700
    32  H    3.389080   4.668649   3.698842   3.491453   5.475691
    33  H    2.766178   3.989486   3.378446   2.349687   4.660219
    34  H    3.932187   5.446399   3.821511   3.632302   5.865327
    35  H    3.175938   4.636200   2.683102   3.335599   5.027014
    36  H    2.695448   4.144067   2.475466   2.273157   4.341437
    37  C    2.534267   3.376057   2.552584   3.386519   4.217729
    38  C    3.097588   3.276200   3.064594   4.148648   4.076909
    39  H    3.435236   4.289480   3.566417   4.146042   5.206694
    40  H    2.753802   3.815833   2.353302   3.523561   4.450852
    41  H    4.103576   4.345548   3.919557   5.139950   5.086529
    42  H    3.434900   3.262577   3.697997   4.436093   4.178571
    43  H    2.906337   2.875747   2.648949   3.995367   3.441838
                   21         22         23         24         25
    21  H    0.000000
    22  H    1.776232   0.000000
    23  C    3.129369   2.712835   0.000000
    24  C    4.490461   4.165223   1.520002   0.000000
    25  H    2.475290   2.303679   1.087956   2.149268   0.000000
    26  H    3.453984   2.443122   1.092569   2.158401   1.758548
    27  H    4.907786   4.376203   2.119952   1.092540   2.433533
    28  H    4.682242   4.748405   2.188324   1.091235   2.522665
    29  H    5.279778   4.822867   2.192509   1.090750   3.079162
    30  C    4.341791   4.140959   2.463115   2.985961   3.391541
    31  C    4.960579   4.954615   3.856382   4.484500   4.655214
    32  H    5.005150   4.921118   2.734278   2.677775   3.685543
    33  H    4.670197   4.032206   2.504446   3.025055   3.523645
    34  H    6.018421   5.890875   4.576837   4.951019   5.484990
    35  H    4.977449   5.344918   4.289038   4.894635   4.939595
    36  H    4.837903   4.692155   4.201582   5.090784   4.914511
    37  C    3.201438   3.976450   2.508152   3.087580   2.714099
    38  C    2.625220   3.926653   3.137273   3.809584   2.766776
    39  H    4.113996   4.724682   2.671006   2.659563   3.024079
    40  H    3.719971   4.587143   3.413851   4.021320   3.705396
    41  H    3.633858   5.011786   4.038642   4.425414   3.711059
    42  H    2.513652   3.645652   2.866818   3.456192   2.198458
    43  H    2.133129   3.724810   3.688316   4.642729   3.244001
                   26         27         28         29         30
    26  H    0.000000
    27  H    2.454609   0.000000
    28  H    3.085084   1.755752   0.000000
    29  H    2.528275   1.756984   1.775260   0.000000
    30  C    2.684750   3.962143   3.413998   2.726360   0.000000
    31  C    4.011502   5.479596   4.790653   4.185105   1.520868
    32  H    3.169455   3.716109   2.900347   2.220871   1.089825
    33  H    2.280032   3.806103   3.748266   2.616124   1.093038
    34  H    4.659663   5.928636   5.273368   4.422529   2.116778
    35  H    4.661427   5.948100   4.974887   4.720792   2.197683
    36  H    4.147649   6.001388   5.522330   4.868148   2.184765
    37  C    3.417783   4.049098   2.832312   3.534998   2.452346
    38  C    4.083113   4.529894   3.398372   4.556268   3.867632
    39  H    3.660784   3.661874   2.144317   2.997028   2.610959
    40  H    4.182876   5.037883   3.785765   4.279277   2.573952
    41  H    5.049636   5.155134   3.777675   5.121666   4.560093
    42  H    3.815084   3.949479   3.058857   4.384180   4.279504
    43  H    4.462570   5.335478   4.383113   5.370235   4.265098
                   31         32         33         34         35
    31  C    0.000000
    32  H    2.153338   0.000000
    33  H    2.160774   1.765812   0.000000
    34  H    1.092798   2.394706   2.497902   0.000000
    35  H    1.090641   2.581436   3.091351   1.763611   0.000000
    36  H    1.090353   3.072504   2.479428   1.759504   1.767287
    37  C    3.130596   2.534863   3.365565   3.997429   2.861294
    38  C    4.507054   4.007609   4.661312   5.448587   4.139604
    39  H    3.475448   2.222136   3.498153   4.115471   3.257471
    40  H    2.675756   2.730950   3.617121   3.542970   2.077809
    41  H    5.084922   4.505201   5.453449   5.942635   4.541374
    42  H    5.184023   4.384149   4.894808   6.104256   4.987901
    43  H    4.656496   4.629817   5.026548   5.685447   4.236985
                   36         37         38         39         40
    36  H    0.000000
    37  C    3.728483   0.000000
    38  C    4.925971   1.517191   0.000000
    39  H    4.285265   1.090318   2.159919   0.000000
    40  H    3.280361   1.087986   2.136925   1.761879   0.000000
    41  H    5.621231   2.109516   1.093015   2.395970   2.467956
    42  H    5.579192   2.199694   1.092675   2.591322   3.076639
    43  H    4.859945   2.167474   1.089531   3.065068   2.428213
                   41         42         43
    41  H    0.000000
    42  H    1.757509   0.000000
    43  H    1.754137   1.791579   0.000000
 Symmetry turned off by external request.
 Stoichiometry    C12H26BrNO3
 Framework group  C1[X(C12H26BrNO3)]
 Deg. of freedom   123
 Full point group                 C1      NOp   1
 Rotational constants (GHZ):           0.5975967           0.1254126           0.1194397
 General basis read from cards:  (5D, 7F)
 ======================================================================================================
                                       Pseudopotential Parameters
 ======================================================================================================
  Center     Atomic      Valence      Angular      Power
  Number     Number     Electrons     Momentum     of R      Exponent        Coefficient   SO-Coeffient
 ======================================================================================================
    1          6
                                   No pseudopotential on this center.
    2          6
                                   No pseudopotential on this center.
    3          8
                                   No pseudopotential on this center.
    4          6
                                   No pseudopotential on this center.
    5          1
                                   No pseudopotential on this center.
    6          1
                                   No pseudopotential on this center.
    7          1
                                   No pseudopotential on this center.
    8          1
                                   No pseudopotential on this center.
    9          1
                                   No pseudopotential on this center.
   10          1
                                   No pseudopotential on this center.
   11         35
                                   No pseudopotential on this center.
   12          6
                                   No pseudopotential on this center.
   13          8
                                   No pseudopotential on this center.
   14          8
                                   No pseudopotential on this center.
   15          7
                                   No pseudopotential on this center.
   16          6
                                   No pseudopotential on this center.
   17          6
                                   No pseudopotential on this center.
   18          1
                                   No pseudopotential on this center.
   19          1
                                   No pseudopotential on this center.
   20          1
                                   No pseudopotential on this center.
   21          1
                                   No pseudopotential on this center.
   22          1
                                   No pseudopotential on this center.
   23          6
                                   No pseudopotential on this center.
   24          6
                                   No pseudopotential on this center.
   25          1
                                   No pseudopotential on this center.
   26          1
                                   No pseudopotential on this center.
   27          1
                                   No pseudopotential on this center.
   28          1
                                   No pseudopotential on this center.
   29          1
                                   No pseudopotential on this center.
   30          6
                                   No pseudopotential on this center.
   31          6
                                   No pseudopotential on this center.
   32          1
                                   No pseudopotential on this center.
   33          1
                                   No pseudopotential on this center.
   34          1
                                   No pseudopotential on this center.
   35          1
                                   No pseudopotential on this center.
   36          1
                                   No pseudopotential on this center.
   37          6
                                   No pseudopotential on this center.
   38          6
                                   No pseudopotential on this center.
   39          1
                                   No pseudopotential on this center.
   40          1
                                   No pseudopotential on this center.
   41          1
                                   No pseudopotential on this center.
   42          1
                                   No pseudopotential on this center.
   43          1
                                   No pseudopotential on this center.
 ======================================================================================================
   382 basis functions,   713 primitive gaussians,   400 cartesian basis functions
    82 alpha electrons       82 beta electrons
       nuclear repulsion energy      1692.5625010995 Hartrees.
 NAtoms=   43 NActive=   43 NUniq=   43 SFac= 1.00D+00 NAtFMM=   60 NAOKFM=F Big=F
 Integral buffers will be    131072 words long.
 Raffenetti 2 integral format.
 Two-electron integral symmetry is turned off.
 One-electron integrals computed using PRISM.
   1 Symmetry operations used in ECPInt.
 ECPInt:  NShTT=   11935 NPrTT=   57376 LenC2=   10161 LenP2D=   30789.
 LDataN:  DoStor=T MaxTD1= 4 Len=   56
 NBasis=   382 RedAO= T EigKep=  3.77D-03  NBF=   382
 NBsUse=   382 1.00D-06 EigRej= -1.00D+00 NBFU=   382
 ExpMin= 1.43D-01 ExpMax= 5.74D+05 ExpMxC= 5.74D+03 IAcc=3 IRadAn=         5 AccDes= 0.00D+00
 Harris functional with IExCor=20419 and IRadAn=       5 diagonalized for initial guess.
 HarFok:  IExCor=20419 AccDes= 0.00D+00 IRadAn=         5 IDoV= 1 UseB2=F ITyADJ=14
 ICtDFT=  3500011 ScaDFX=  1.000000  1.000000  1.000000  1.000000
 FoFCou: FMM=F IPFlag=           0 FMFlag=      100000 FMFlg1=           0
         NFxFlg=           0 DoJE=T BraDBF=F KetDBF=T FulRan=T
         wScrn=  0.000000 ICntrl=       500 IOpCl=  0 I1Cent=   200000004 NGrid=           0
         NMat0=    1 NMatS0=      1 NMatT0=    0 NMatD0=    1 NMtDS0=    0 NMtDT0=    0
 Symmetry not used in FoFCou.
 Requested convergence on RMS density matrix=1.00D-08 within  32 cycles.
 Requested convergence on MAX density matrix=1.00D-06.
 Requested convergence on             energy=1.00D-06.
 No special actions if energy rises.
 Integral accuracy reduced to 1.0D-05 until final iterations.
 Initial convergence to 1.0D-05 achieved.  Increase integral accuracy.
 SCF Done:  E(RCAM-B3LYP) =  -3324.47389393     A.U. after   14 cycles
            NFock= 14  Conv=0.30D-08     -V/T= 2.0015
 QCSCF skips out because SCF is already converged.
 DoSCS=F DFT=T ScalE2(SS,OS)=  1.000000  1.000000
 Range of M.O.s used for correlation:     1   382
 NBasis=   382 NAE=    82 NBE=    82 NFC=     0 NFV=     0
 NROrb=    382 NOA=    82 NOB=    82 NVA=   300 NVB=   300
   1 Symmetry operations used in ECPInt.
 ECPInt:  NShTT=   11935 NPrTT=   57376 LenC2=   10161 LenP2D=   30789.
 LDataN:  DoStor=T MaxTD1= 5 Len=  102
 Number of processors reduced to  27 by ecpmxn.
 Symmetrizing basis deriv contribution to polar:
 IMax=3 JMax=2 DiffMx= 0.00D+00
 G2DrvN: will do    44 centers at a time, making    1 passes.
 Calling FoFCou, ICntrl=  3107 FMM=F I1Cent=   0 AccDes= 0.00D+00.
 End of G2Drv F.D. properties file   721 does not exist.
 End of G2Drv F.D. properties file   722 does not exist.
 End of G2Drv F.D. properties file   788 does not exist.
          IDoAtm=1111111111111111111111111111111111111111111
          Differentiating once with respect to nuclear coordinates.
 CalDSu exits because no D1Ps are significant.
          There are   132 degrees of freedom in the 1st order CPHF.  IDoFFX=6 NUNeed=     0.
    126 vectors produced by pass  0 Test12= 2.46D-14 1.00D-09 XBig12= 1.12D-01 5.22D-02.
 AX will form   126 AO Fock derivatives at one time.
    126 vectors produced by pass  1 Test12= 2.46D-14 1.00D-09 XBig12= 6.80D-03 2.14D-02.
    126 vectors produced by pass  2 Test12= 2.46D-14 1.00D-09 XBig12= 2.13D-04 2.04D-03.
    126 vectors produced by pass  3 Test12= 2.46D-14 1.00D-09 XBig12= 2.23D-06 1.95D-04.
    126 vectors produced by pass  4 Test12= 2.46D-14 1.00D-09 XBig12= 9.64D-09 1.15D-05.
    126 vectors produced by pass  5 Test12= 2.46D-14 1.00D-09 XBig12= 3.23D-11 6.29D-07.
     47 vectors produced by pass  6 Test12= 2.46D-14 1.00D-09 XBig12= 1.09D-13 2.73D-08.
      4 vectors produced by pass  7 Test12= 2.46D-14 1.00D-09 XBig12= 3.49D-16 1.54D-09.
 InvSVY:  IOpt=1 It=  1 EMax= 3.05D-16
 Solved reduced A of dimension   807 with   132 vectors.
 End of Minotr F.D. properties file   721 does not exist.
 End of Minotr F.D. properties file   722 does not exist.
 End of Minotr F.D. properties file   788 does not exist.

 **********************************************************************

            Population analysis using the SCF Density.

 **********************************************************************

 Alpha  occ. eigenvalues -- -482.52498 -61.60684 -56.17456 -56.17421 -56.17418
 Alpha  occ. eigenvalues --  -19.26692 -19.26049 -19.20901 -14.58135 -10.43627
 Alpha  occ. eigenvalues --  -10.37480 -10.36995 -10.35366 -10.35267 -10.32252
 Alpha  occ. eigenvalues --  -10.30506 -10.30005 -10.29956 -10.29864 -10.29020
 Alpha  occ. eigenvalues --  -10.22416  -8.38746  -6.39717  -6.39668  -6.39659
 Alpha  occ. eigenvalues --   -2.52010  -2.51998  -2.51990  -2.51951  -2.51951
 Alpha  occ. eigenvalues --   -1.23589  -1.14847  -1.11561  -1.10992  -0.93258
 Alpha  occ. eigenvalues --   -0.92192  -0.91709  -0.86959  -0.85736  -0.79850
 Alpha  occ. eigenvalues --   -0.78471  -0.77528  -0.76728  -0.70370  -0.69789
 Alpha  occ. eigenvalues --   -0.66161  -0.64763  -0.64659  -0.62477  -0.61834
 Alpha  occ. eigenvalues --   -0.60469  -0.58960  -0.58513  -0.56634  -0.56080
 Alpha  occ. eigenvalues --   -0.55159  -0.54113  -0.53141  -0.52166  -0.51574
 Alpha  occ. eigenvalues --   -0.50983  -0.50690  -0.50447  -0.50078  -0.49515
 Alpha  occ. eigenvalues --   -0.49316  -0.48699  -0.47680  -0.46875  -0.46481
 Alpha  occ. eigenvalues --   -0.46027  -0.45442  -0.45147  -0.43225  -0.42294
 Alpha  occ. eigenvalues --   -0.39164  -0.36481  -0.35907  -0.35043  -0.17794
 Alpha  occ. eigenvalues --   -0.17579  -0.17538
 Alpha virt. eigenvalues --    0.05429   0.07894   0.08678   0.09416   0.09698
 Alpha virt. eigenvalues --    0.10230   0.11646   0.12395   0.12930   0.13342
 Alpha virt. eigenvalues --    0.14211   0.15516   0.16020   0.16311   0.16533
 Alpha virt. eigenvalues --    0.16889   0.17520   0.18021   0.18179   0.18782
 Alpha virt. eigenvalues --    0.20049   0.20818   0.21308   0.21730   0.21999
 Alpha virt. eigenvalues --    0.22693   0.22898   0.23853   0.24643   0.24987
 Alpha virt. eigenvalues --    0.25421   0.26512   0.27354   0.27407   0.27852
 Alpha virt. eigenvalues --    0.28382   0.28623   0.29582   0.33988   0.35490
 Alpha virt. eigenvalues --    0.44637   0.45908   0.46688   0.47339   0.47770
 Alpha virt. eigenvalues --    0.49384   0.50918   0.52071   0.52674   0.54638
 Alpha virt. eigenvalues --    0.55497   0.56765   0.57499   0.59168   0.59756
 Alpha virt. eigenvalues --    0.60438   0.61458   0.61632   0.62058   0.62807
 Alpha virt. eigenvalues --    0.63085   0.64283   0.65480   0.65764   0.67494
 Alpha virt. eigenvalues --    0.68860   0.69141   0.69776   0.70195   0.70763
 Alpha virt. eigenvalues --    0.71117   0.71188   0.71887   0.72353   0.72483
 Alpha virt. eigenvalues --    0.74474   0.75686   0.76423   0.77176   0.77243
 Alpha virt. eigenvalues --    0.79626   0.80410   0.82147   0.83438   0.84876
 Alpha virt. eigenvalues --    0.85621   0.86008   0.86392   0.87028   0.87859
 Alpha virt. eigenvalues --    0.88402   0.88502   0.89171   0.89949   0.90812
 Alpha virt. eigenvalues --    0.91934   0.92359   0.92802   0.94244   0.94444
 Alpha virt. eigenvalues --    0.94958   0.95657   0.96013   0.96672   0.97572
 Alpha virt. eigenvalues --    0.98519   0.99547   0.99963   1.00589   1.00931
 Alpha virt. eigenvalues --    1.02666   1.03251   1.03924   1.04633   1.05578
 Alpha virt. eigenvalues --    1.07405   1.08047   1.09215   1.10237   1.12371
 Alpha virt. eigenvalues --    1.14150   1.18456   1.19067   1.20147   1.21403
 Alpha virt. eigenvalues --    1.22810   1.24122   1.27411   1.31514   1.32631
 Alpha virt. eigenvalues --    1.36085   1.38966   1.41026   1.41703   1.42748
 Alpha virt. eigenvalues --    1.44117   1.45518   1.47452   1.50063   1.52171
 Alpha virt. eigenvalues --    1.52982   1.54608   1.55512   1.58073   1.59712
 Alpha virt. eigenvalues --    1.60592   1.61817   1.63264   1.65126   1.68012
 Alpha virt. eigenvalues --    1.69411   1.71683   1.73011   1.74174   1.75335
 Alpha virt. eigenvalues --    1.76708   1.80383   1.81207   1.82810   1.84061
 Alpha virt. eigenvalues --    1.85087   1.85706   1.87462   1.88638   1.89238
 Alpha virt. eigenvalues --    1.89855   1.90950   1.92538   1.93322   1.93841
 Alpha virt. eigenvalues --    1.94191   1.95056   1.96261   1.97056   1.99370
 Alpha virt. eigenvalues --    1.99780   2.00888   2.02314   2.04210   2.05107
 Alpha virt. eigenvalues --    2.05598   2.06967   2.07130   2.07309   2.07923
 Alpha virt. eigenvalues --    2.08746   2.09550   2.10820   2.11053   2.11477
 Alpha virt. eigenvalues --    2.13042   2.13225   2.13735   2.14096   2.15457
 Alpha virt. eigenvalues --    2.15985   2.16113   2.16744   2.17836   2.18858
 Alpha virt. eigenvalues --    2.19840   2.20808   2.21089   2.22690   2.23387
 Alpha virt. eigenvalues --    2.25778   2.26974   2.27568   2.30153   2.31001
 Alpha virt. eigenvalues --    2.32283   2.33985   2.34481   2.34877   2.36181
 Alpha virt. eigenvalues --    2.38940   2.41357   2.41929   2.43859   2.45627
 Alpha virt. eigenvalues --    2.46301   2.46788   2.49228   2.50170   2.52780
 Alpha virt. eigenvalues --    2.53585   2.55934   2.56394   2.58470   2.60233
 Alpha virt. eigenvalues --    2.63447   2.65758   2.66081   2.66634   2.68617
 Alpha virt. eigenvalues --    2.69727   2.70242   2.71304   2.72457   2.73093
 Alpha virt. eigenvalues --    2.75236   2.75517   2.76012   2.77575   2.78487
 Alpha virt. eigenvalues --    2.79662   2.80583   2.81220   2.81681   2.82638
 Alpha virt. eigenvalues --    2.83488   2.84376   2.86819   2.87834   2.88720
 Alpha virt. eigenvalues --    2.89818   2.90255   2.90801   2.91731   2.92364
 Alpha virt. eigenvalues --    2.92971   2.94031   2.95842   2.96310   2.97400
 Alpha virt. eigenvalues --    2.98040   2.98309   2.99150   3.05459   3.06625
 Alpha virt. eigenvalues --    3.10945   3.21685   3.24049   3.24687   3.26397
 Alpha virt. eigenvalues --    3.26655   3.30003   3.30826   3.31807   3.33759
 Alpha virt. eigenvalues --    3.35163   3.39168   3.41204   3.42699   3.43702
 Alpha virt. eigenvalues --    3.44765   3.46044   3.47021   3.48060   3.50454
 Alpha virt. eigenvalues --    3.51444   3.53389   3.55014   3.55469   3.56498
 Alpha virt. eigenvalues --    3.56985   3.57992   3.61058   3.61666   8.67104
          Condensed to atoms (all electrons):
               1          2          3          4          5          6
     1  C    4.843834   0.360818   0.164433   0.371987  -0.027499  -0.033316
     2  C    0.360818   4.864678  -0.037230  -0.038818   0.375063   0.396282
     3  O    0.164433  -0.037230   8.270931  -0.048499   0.001051   0.002181
     4  C    0.371987  -0.038818  -0.048499   4.987423   0.004006  -0.004734
     5  H   -0.027499   0.375063   0.001051   0.004006   0.528490  -0.030944
     6  H   -0.033316   0.396282   0.002181  -0.004734  -0.030944   0.526487
     7  H   -0.028443   0.004506  -0.000734   0.374060  -0.000171   0.000203
     8  H   -0.034599  -0.007331  -0.000855   0.374729   0.000054   0.001477
     9  H   -0.019428  -0.002978   0.002943   0.356060  -0.000319   0.001110
    10  H    0.371459  -0.034802  -0.023674  -0.036630  -0.004868   0.001864
    11  Br  -0.016814  -0.005350   0.000974  -0.022148   0.017646   0.005012
    12  C   -0.043876  -0.052889   0.293465   0.001731   0.001881   0.001438
    13  O    0.000829   0.000642  -0.072651  -0.000037   0.000062  -0.000052
    14  O   -0.028901   0.161996  -0.088685  -0.001246  -0.030525  -0.026915
    15  N   -0.000001   0.000000   0.000179   0.000000  -0.000000   0.000000
    16  C   -0.000001   0.000000   0.000115   0.000000   0.000000  -0.000000
    17  C   -0.000000  -0.000000   0.000002   0.000000  -0.000000   0.000000
    18  H    0.000006  -0.000002  -0.000437  -0.000001  -0.000000   0.000000
    19  H    0.000000  -0.000000  -0.000002  -0.000000   0.000000   0.000000
    20  H   -0.000000   0.000000   0.000000   0.000000  -0.000000   0.000000
    21  H    0.000000   0.000000  -0.000000  -0.000000  -0.000000   0.000000
    22  H   -0.000000   0.000000   0.000000   0.000000   0.000000  -0.000000
    23  C    0.000000  -0.000000  -0.000002  -0.000000  -0.000000   0.000000
    24  C   -0.000000   0.000000   0.000000   0.000000   0.000000  -0.000000
    25  H   -0.000000   0.000000  -0.000000  -0.000000  -0.000000   0.000000
    26  H   -0.000000   0.000000   0.000000   0.000000   0.000000  -0.000000
    27  H   -0.000000  -0.000000   0.000000   0.000000  -0.000000  -0.000000
    28  H    0.000000   0.000000   0.000000   0.000000  -0.000000   0.000000
    29  H    0.000000   0.000000  -0.000000   0.000000   0.000000  -0.000000
    30  C   -0.000003   0.000000   0.000124   0.000002  -0.000000   0.000000
    31  C    0.000156  -0.000013  -0.008295  -0.000038   0.000000   0.000000
    32  H   -0.000000   0.000000   0.000008   0.000000   0.000000   0.000000
    33  H    0.000000  -0.000000  -0.000002  -0.000000   0.000000   0.000000
    34  H   -0.000001   0.000000   0.000092  -0.000005  -0.000000  -0.000000
    35  H   -0.000609   0.000120   0.020163  -0.000005  -0.000004  -0.000001
    36  H   -0.000002  -0.000000   0.000007   0.000005  -0.000000   0.000000
    37  C    0.000152  -0.000042  -0.010929  -0.000016  -0.000006   0.000000
    38  C   -0.000001   0.000000   0.000280   0.000000   0.000002  -0.000000
    39  H    0.000001   0.000000   0.000056  -0.000000   0.000000  -0.000000
    40  H   -0.000381   0.000179   0.023918   0.000118   0.000031  -0.000005
    41  H    0.000002   0.000003   0.000092   0.000000   0.000005   0.000000
    42  H    0.000000  -0.000000  -0.000003  -0.000000   0.000000  -0.000000
    43  H    0.000003  -0.000008  -0.000144  -0.000000   0.000006  -0.000000
               7          8          9         10         11         12
     1  C   -0.028443  -0.034599  -0.019428   0.371459  -0.016814  -0.043876
     2  C    0.004506  -0.007331  -0.002978  -0.034802  -0.005350  -0.052889
     3  O   -0.000734  -0.000855   0.002943  -0.023674   0.000974   0.293465
     4  C    0.374060   0.374729   0.356060  -0.036630  -0.022148   0.001731
     5  H   -0.000171   0.000054  -0.000319  -0.004868   0.017646   0.001881
     6  H    0.000203   0.001477   0.001110   0.001864   0.005012   0.001438
     7  H    0.617650  -0.034771  -0.018328  -0.003694   0.000501  -0.000471
     8  H   -0.034771   0.624988  -0.019657   0.004817   0.000392   0.002691
     9  H   -0.018328  -0.019657   0.491496  -0.002495   0.029671  -0.000018
    10  H   -0.003694   0.004817  -0.002495   0.522975   0.035882   0.002247
    11  Br   0.000501   0.000392   0.029671   0.035882  35.806205   0.000266
    12  C   -0.000471   0.002691  -0.000018   0.002247   0.000266   4.108102
    13  O    0.000000  -0.000097   0.000001  -0.000055   0.000001   0.614589
    14  O   -0.000067   0.001361   0.000109   0.002089   0.001075   0.347870
    15  N    0.000000  -0.000000  -0.000000  -0.000000   0.000000  -0.000005
    16  C   -0.000000   0.000000   0.000000   0.000000   0.000000  -0.000664
    17  C    0.000000   0.000000  -0.000000   0.000000  -0.000000   0.000022
    18  H    0.000001  -0.000001  -0.000000  -0.000001  -0.000000   0.000023
    19  H   -0.000000   0.000000   0.000000   0.000000  -0.000000   0.000020
    20  H    0.000000  -0.000000  -0.000000  -0.000000  -0.000000   0.000006
    21  H    0.000000  -0.000000  -0.000000  -0.000000  -0.000000   0.000006
    22  H   -0.000000   0.000000  -0.000000   0.000000  -0.000000  -0.000001
    23  C   -0.000000   0.000000   0.000000   0.000000  -0.000000  -0.000004
    24  C    0.000000  -0.000000  -0.000000  -0.000000   0.000000   0.000000
    25  H    0.000000   0.000000   0.000000   0.000000   0.000000   0.000000
    26  H    0.000000   0.000000  -0.000000  -0.000000  -0.000000   0.000000
    27  H    0.000000   0.000000  -0.000000   0.000000  -0.000000  -0.000000
    28  H    0.000000  -0.000000  -0.000000  -0.000000  -0.000000  -0.000000
    29  H    0.000000   0.000000   0.000000   0.000000   0.000000   0.000000
    30  C    0.000003   0.000000  -0.000000   0.000000   0.000000  -0.000023
    31  C   -0.000130   0.000006  -0.000000  -0.000001   0.000000  -0.000168
    32  H   -0.000000  -0.000000  -0.000000   0.000000   0.000000   0.000004
    33  H    0.000000   0.000000   0.000000  -0.000000   0.000000  -0.000001
    34  H    0.000037  -0.000000   0.000000  -0.000000  -0.000000   0.000007
    35  H    0.000981  -0.000024   0.000005  -0.000002   0.000000  -0.000196
    36  H   -0.000005   0.000000  -0.000000   0.000000   0.000000   0.000099
    37  C   -0.000001   0.000000   0.000000   0.000105   0.000000  -0.000985
    38  C   -0.000000  -0.000000  -0.000000  -0.000002  -0.000000   0.000486
    39  H    0.000000   0.000000   0.000000  -0.000001  -0.000000   0.000070
    40  H   -0.000011  -0.000004  -0.000001  -0.000355   0.000001  -0.000948
    41  H   -0.000000   0.000000  -0.000000   0.000001   0.000000   0.000097
    42  H   -0.000000   0.000000   0.000000   0.000000  -0.000000   0.000002
    43  H   -0.000000   0.000000   0.000000   0.000003  -0.000000   0.000704
              13         14         15         16         17         18
     1  C    0.000829  -0.028901  -0.000001  -0.000001  -0.000000   0.000006
     2  C    0.000642   0.161996   0.000000   0.000000  -0.000000  -0.000002
     3  O   -0.072651  -0.088685   0.000179   0.000115   0.000002  -0.000437
     4  C   -0.000037  -0.001246   0.000000   0.000000   0.000000  -0.000001
     5  H    0.000062  -0.030525  -0.000000   0.000000  -0.000000  -0.000000
     6  H   -0.000052  -0.026915   0.000000  -0.000000   0.000000   0.000000
     7  H    0.000000  -0.000067   0.000000  -0.000000   0.000000   0.000001
     8  H   -0.000097   0.001361  -0.000000   0.000000   0.000000  -0.000001
     9  H    0.000001   0.000109  -0.000000   0.000000  -0.000000  -0.000000
    10  H   -0.000055   0.002089  -0.000000   0.000000   0.000000  -0.000001
    11  Br   0.000001   0.001075   0.000000   0.000000  -0.000000  -0.000000
    12  C    0.614589   0.347870  -0.000005  -0.000664   0.000022   0.000023
    13  O    7.968500  -0.063355  -0.000372  -0.024903   0.001169   0.048009
    14  O   -0.063355   8.162570   0.000000  -0.000020   0.000000   0.000193
    15  N   -0.000372   0.000000   6.889599   0.221051  -0.034717  -0.028311
    16  C   -0.024903  -0.000020   0.221051   4.980280   0.371389   0.360294
    17  C    0.001169   0.000000  -0.034717   0.371389   4.913492  -0.027290
    18  H    0.048009   0.000193  -0.028311   0.360294  -0.027290   0.464475
    19  H    0.000317   0.000000  -0.041206   0.391578  -0.039552  -0.021362
    20  H    0.000154   0.000000   0.003204  -0.024768   0.388090  -0.003757
    21  H   -0.000130   0.000000  -0.002046  -0.031317   0.392663  -0.003049
    22  H   -0.000001  -0.000000  -0.003743  -0.033602   0.387137   0.003576
    23  C   -0.000012  -0.000000   0.247134  -0.041320  -0.003161   0.002669
    24  C    0.000000   0.000000  -0.038609   0.003818   0.000390  -0.000117
    25  H   -0.000001   0.000000  -0.034256  -0.008176   0.004140   0.000004
    26  H    0.000000   0.000000  -0.038804  -0.000271  -0.003563   0.000122
    27  H   -0.000000  -0.000000   0.003299  -0.000066   0.000009   0.000002
    28  H   -0.000000   0.000000  -0.003146  -0.000017  -0.000019   0.000004
    29  H    0.000000  -0.000000  -0.003766  -0.000124   0.000002  -0.000002
    30  C   -0.000003   0.000000   0.243453  -0.037988   0.003237  -0.004678
    31  C   -0.000053  -0.000007  -0.037944  -0.002271   0.000373   0.001462
    32  H    0.000000   0.000000  -0.036722   0.003947  -0.000142  -0.000152
    33  H   -0.000000  -0.000000  -0.040673  -0.005053  -0.000104   0.000021
    34  H    0.000003   0.000000   0.003442   0.000090  -0.000007   0.000114
    35  H    0.000136   0.000059  -0.002348  -0.002084  -0.000010   0.000706
    36  H   -0.000014   0.000000  -0.003634   0.002927   0.000094  -0.001249
    37  C    0.001485   0.000003   0.227028  -0.033962  -0.002676  -0.000491
    38  C   -0.005731  -0.000002  -0.037230  -0.000588  -0.003623  -0.001873
    39  H    0.000094  -0.000000  -0.039424   0.004192  -0.000156   0.000259
    40  H    0.001558  -0.000096  -0.030519  -0.005279  -0.000105   0.001484
    41  H   -0.000082   0.000000   0.003342  -0.000117   0.000255  -0.000009
    42  H    0.000128  -0.000000  -0.004390  -0.000531  -0.001028   0.000061
    43  H    0.013156  -0.000140  -0.002467   0.003026  -0.004149  -0.000585
              19         20         21         22         23         24
     1  C    0.000000  -0.000000   0.000000  -0.000000   0.000000  -0.000000
     2  C   -0.000000   0.000000   0.000000   0.000000  -0.000000   0.000000
     3  O   -0.000002   0.000000  -0.000000   0.000000  -0.000002   0.000000
     4  C   -0.000000   0.000000  -0.000000   0.000000  -0.000000   0.000000
     5  H    0.000000  -0.000000  -0.000000   0.000000  -0.000000   0.000000
     6  H    0.000000   0.000000   0.000000  -0.000000   0.000000  -0.000000
     7  H   -0.000000   0.000000   0.000000  -0.000000  -0.000000   0.000000
     8  H    0.000000  -0.000000  -0.000000   0.000000   0.000000  -0.000000
     9  H    0.000000  -0.000000  -0.000000  -0.000000   0.000000  -0.000000
    10  H    0.000000  -0.000000  -0.000000   0.000000   0.000000  -0.000000
    11  Br  -0.000000  -0.000000  -0.000000  -0.000000  -0.000000   0.000000
    12  C    0.000020   0.000006   0.000006  -0.000001  -0.000004   0.000000
    13  O    0.000317   0.000154  -0.000130  -0.000001  -0.000012   0.000000
    14  O    0.000000   0.000000   0.000000  -0.000000  -0.000000   0.000000
    15  N   -0.041206   0.003204  -0.002046  -0.003743   0.247134  -0.038609
    16  C    0.391578  -0.024768  -0.031317  -0.033602  -0.041320   0.003818
    17  C   -0.039552   0.388090   0.392663   0.387137  -0.003161   0.000390
    18  H   -0.021362  -0.003757  -0.003049   0.003576   0.002669  -0.000117
    19  H    0.581630  -0.002137   0.004333  -0.005414  -0.004062  -0.000135
    20  H   -0.002137   0.531622  -0.020705  -0.026297   0.000163  -0.000007
    21  H    0.004333  -0.020705   0.549402  -0.030306  -0.002735  -0.000027
    22  H   -0.005414  -0.026297  -0.030306   0.592399   0.002222   0.000109
    23  C   -0.004062   0.000163  -0.002735   0.002222   4.874699   0.365811
    24  C   -0.000135  -0.000007  -0.000027   0.000109   0.365811   4.926149
    25  H    0.000003   0.000091   0.000581  -0.001166   0.401530  -0.035750
    26  H    0.003006  -0.000022   0.000242   0.000655   0.398792  -0.036017
    27  H    0.000000  -0.000000   0.000000   0.000015  -0.025610   0.387320
    28  H    0.000002   0.000000   0.000003   0.000002  -0.031769   0.393531
    29  H   -0.000008   0.000000  -0.000001  -0.000004  -0.031855   0.392307
    30  C   -0.000781  -0.000058  -0.000005  -0.000189  -0.040235  -0.004088
    31  C   -0.005634   0.000005  -0.000019   0.000011   0.003611   0.000243
    32  H    0.000425   0.000003   0.000006  -0.000004  -0.006588   0.002327
    33  H    0.002830  -0.000002   0.000002  -0.000016  -0.000665  -0.002860
    34  H    0.000005  -0.000000   0.000000   0.000000  -0.000064   0.000001
    35  H    0.000149  -0.000000   0.000001  -0.000001  -0.000010  -0.000017
    36  H    0.001478   0.000014   0.000002  -0.000005  -0.000108   0.000003
    37  C    0.003631  -0.000011  -0.000298   0.000112  -0.036864  -0.004698
    38  C   -0.000023   0.000030   0.003032  -0.000029  -0.003169  -0.001039
    39  H   -0.000218   0.000003  -0.000037   0.000011  -0.007906   0.003255
    40  H    0.000080  -0.000000   0.000050  -0.000006   0.003886   0.000068
    41  H    0.000002  -0.000004   0.000098  -0.000006   0.000008   0.000012
    42  H   -0.000011   0.000018   0.000284  -0.000052   0.000549   0.000053
    43  H   -0.000002   0.000267   0.001376   0.000092  -0.000234   0.000025
              25         26         27         28         29         30
     1  C   -0.000000  -0.000000  -0.000000   0.000000   0.000000  -0.000003
     2  C    0.000000   0.000000  -0.000000   0.000000   0.000000   0.000000
     3  O   -0.000000   0.000000   0.000000   0.000000  -0.000000   0.000124
     4  C   -0.000000   0.000000   0.000000   0.000000   0.000000   0.000002
     5  H   -0.000000   0.000000  -0.000000  -0.000000   0.000000  -0.000000
     6  H    0.000000  -0.000000  -0.000000   0.000000  -0.000000   0.000000
     7  H    0.000000   0.000000   0.000000   0.000000   0.000000   0.000003
     8  H    0.000000   0.000000   0.000000  -0.000000   0.000000   0.000000
     9  H    0.000000  -0.000000  -0.000000  -0.000000   0.000000  -0.000000
    10  H    0.000000  -0.000000   0.000000  -0.000000   0.000000   0.000000
    11  Br   0.000000  -0.000000  -0.000000  -0.000000   0.000000   0.000000
    12  C    0.000000   0.000000  -0.000000  -0.000000   0.000000  -0.000023
    13  O   -0.000001   0.000000  -0.000000  -0.000000   0.000000  -0.000003
    14  O    0.000000   0.000000  -0.000000   0.000000  -0.000000   0.000000
    15  N   -0.034256  -0.038804   0.003299  -0.003146  -0.003766   0.243453
    16  C   -0.008176  -0.000271  -0.000066  -0.000017  -0.000124  -0.037988
    17  C    0.004140  -0.003563   0.000009  -0.000019   0.000002   0.003237
    18  H    0.000004   0.000122   0.000002   0.000004  -0.000002  -0.004678
    19  H    0.000003   0.003006   0.000000   0.000002  -0.000008  -0.000781
    20  H    0.000091  -0.000022  -0.000000   0.000000   0.000000  -0.000058
    21  H    0.000581   0.000242   0.000000   0.000003  -0.000001  -0.000005
    22  H   -0.001166   0.000655   0.000015   0.000002  -0.000004  -0.000189
    23  C    0.401530   0.398792  -0.025610  -0.031769  -0.031855  -0.040235
    24  C   -0.035750  -0.036017   0.387320   0.393531   0.392307  -0.004088
    25  H    0.545879  -0.029796  -0.002893  -0.004047   0.004092   0.004138
    26  H   -0.029796   0.563465  -0.002823   0.004146  -0.004150  -0.006638
    27  H   -0.002893  -0.002823   0.541086  -0.023232  -0.024040   0.000075
    28  H   -0.004047   0.004146  -0.023232   0.547007  -0.027793  -0.000961
    29  H    0.004092  -0.004150  -0.024040  -0.027793   0.555806   0.002834
    30  C    0.004138  -0.006638   0.000075  -0.000961   0.002834   4.894321
    31  C   -0.000144  -0.000076  -0.000004  -0.000018   0.000045   0.364649
    32  H   -0.000115  -0.000071   0.000072   0.000143  -0.000170   0.399724
    33  H    0.000219   0.004507  -0.000037   0.000110   0.000908   0.393736
    34  H    0.000003  -0.000003  -0.000000  -0.000000   0.000010  -0.026146
    35  H    0.000005   0.000004   0.000000  -0.000000   0.000007  -0.028551
    36  H   -0.000003  -0.000016   0.000000  -0.000000  -0.000003  -0.033988
    37  C   -0.004528   0.004180   0.000122   0.000154  -0.000418  -0.040012
    38  C    0.002665   0.000053  -0.000003   0.000345   0.000024   0.003595
    39  H   -0.000423   0.000017   0.000012   0.001295  -0.000097  -0.005577
    40  H    0.000024  -0.000148  -0.000003   0.000017  -0.000018  -0.003238
    41  H   -0.000079  -0.000000  -0.000000  -0.000010   0.000002  -0.000071
    42  H    0.002368  -0.000011  -0.000023   0.000542  -0.000012  -0.000043
    43  H   -0.000161  -0.000010   0.000001  -0.000018  -0.000001  -0.000026
              31         32         33         34         35         36
     1  C    0.000156  -0.000000   0.000000  -0.000001  -0.000609  -0.000002
     2  C   -0.000013   0.000000  -0.000000   0.000000   0.000120  -0.000000
     3  O   -0.008295   0.000008  -0.000002   0.000092   0.020163   0.000007
     4  C   -0.000038   0.000000  -0.000000  -0.000005  -0.000005   0.000005
     5  H    0.000000   0.000000   0.000000  -0.000000  -0.000004  -0.000000
     6  H    0.000000   0.000000   0.000000  -0.000000  -0.000001   0.000000
     7  H   -0.000130  -0.000000   0.000000   0.000037   0.000981  -0.000005
     8  H    0.000006  -0.000000   0.000000  -0.000000  -0.000024   0.000000
     9  H   -0.000000  -0.000000   0.000000   0.000000   0.000005  -0.000000
    10  H   -0.000001   0.000000  -0.000000  -0.000000  -0.000002   0.000000
    11  Br   0.000000   0.000000   0.000000  -0.000000   0.000000   0.000000
    12  C   -0.000168   0.000004  -0.000001   0.000007  -0.000196   0.000099
    13  O   -0.000053   0.000000  -0.000000   0.000003   0.000136  -0.000014
    14  O   -0.000007   0.000000  -0.000000   0.000000   0.000059   0.000000
    15  N   -0.037944  -0.036722  -0.040673   0.003442  -0.002348  -0.003634
    16  C   -0.002271   0.003947  -0.005053   0.000090  -0.002084   0.002927
    17  C    0.000373  -0.000142  -0.000104  -0.000007  -0.000010   0.000094
    18  H    0.001462  -0.000152   0.000021   0.000114   0.000706  -0.001249
    19  H   -0.005634   0.000425   0.002830   0.000005   0.000149   0.001478
    20  H    0.000005   0.000003  -0.000002  -0.000000  -0.000000   0.000014
    21  H   -0.000019   0.000006   0.000002   0.000000   0.000001   0.000002
    22  H    0.000011  -0.000004  -0.000016   0.000000  -0.000001  -0.000005
    23  C    0.003611  -0.006588  -0.000665  -0.000064  -0.000010  -0.000108
    24  C    0.000243   0.002327  -0.002860   0.000001  -0.000017   0.000003
    25  H   -0.000144  -0.000115   0.000219   0.000003   0.000005  -0.000003
    26  H   -0.000076  -0.000071   0.004507  -0.000003   0.000004  -0.000016
    27  H   -0.000004   0.000072  -0.000037  -0.000000   0.000000   0.000000
    28  H   -0.000018   0.000143   0.000110  -0.000000  -0.000000  -0.000000
    29  H    0.000045  -0.000170   0.000908   0.000010   0.000007  -0.000003
    30  C    0.364649   0.399724   0.393736  -0.026146  -0.028551  -0.033988
    31  C    4.950723  -0.032554  -0.034498   0.381638   0.382735   0.393600
    32  H   -0.032554   0.554682  -0.031562  -0.004293  -0.002568   0.004148
    33  H   -0.034498  -0.031562   0.576053  -0.001752   0.003589  -0.005473
    34  H    0.381638  -0.004293  -0.001752   0.553098  -0.018893  -0.025906
    35  H    0.382735  -0.002568   0.003589  -0.018893   0.490832  -0.023680
    36  H    0.393600   0.004148  -0.005473  -0.025906  -0.023680   0.558139
    37  C   -0.004592  -0.003862   0.004111   0.000081  -0.001686   0.000116
    38  C    0.000098   0.000166  -0.000184  -0.000001  -0.000080  -0.000001
    39  H   -0.000413   0.003900   0.000126  -0.000022   0.000228  -0.000006
    40  H    0.001234  -0.001132   0.000125  -0.000061   0.002536  -0.000133
    41  H    0.000001  -0.000010   0.000003  -0.000000   0.000011  -0.000000
    42  H   -0.000004   0.000000   0.000001   0.000000  -0.000004   0.000000
    43  H   -0.000010   0.000003   0.000003  -0.000000   0.000023  -0.000004
              37         38         39         40         41         42
     1  C    0.000152  -0.000001   0.000001  -0.000381   0.000002   0.000000
     2  C   -0.000042   0.000000   0.000000   0.000179   0.000003  -0.000000
     3  O   -0.010929   0.000280   0.000056   0.023918   0.000092  -0.000003
     4  C   -0.000016   0.000000  -0.000000   0.000118   0.000000  -0.000000
     5  H   -0.000006   0.000002   0.000000   0.000031   0.000005   0.000000
     6  H    0.000000  -0.000000  -0.000000  -0.000005   0.000000  -0.000000
     7  H   -0.000001  -0.000000   0.000000  -0.000011  -0.000000  -0.000000
     8  H    0.000000  -0.000000   0.000000  -0.000004   0.000000   0.000000
     9  H    0.000000  -0.000000   0.000000  -0.000001  -0.000000   0.000000
[...]
 578,-0.00066061,-0.00032550,-0.00021211,0.00002523,-0.00003743,0.00010
 279,0.00001177,0.00005565,0.00011630,0.00012453,-0.00005534,0.00008249
 ,-0.00003985,0.00049575,-0.00053943,0.00013715,0.00011044,0.00021604,-
 0.00001103,0.00276173,0.00197703,0.00051219,-0.00004352,0.00024475,-0.
 00012777,0.00052679,0.00191387,-0.00061305,-0.00019275,-0.00008343,-0.
 00034834,-0.00000436,0.00002164,-0.00007798,0.00035901,-0.00016648,-0.
 00021381,-0.00012619,-0.00010790,0.00016550,-0.09201061,-0.00608818,-0
 .08590086,-0.03099616,-0.00010622,-0.01649747,0.08974049,-0.00389767,0
 .10271320,-0.00044570,-0.00008032,0.00015105,-0.00074333,-0.00002047,0
 .00010021,0.00114075,0.00017140,0.00049673,0.00006535,-0.00004480,0.00
 001686,0.00008623,0.00012456,-0.00004743,0.00016391,0.00003991,-0.0000
 1120,-0.00000705,0.00001881,0.00001327,-0.00001779,-0.00001507,0.00000
 010,0.00002897,0.00002758,-0.00000217,0.00007860,0.00010593,0.00002521
 ,-0.00101207,-0.00037627,-0.00087250,-0.00358798,-0.00204103,-0.001180
 86,0.00084203,0.00217666,0.00100049,0.00084676,0.00032126,-0.00038249,
 0.00535418,-0.01863093,-0.00611225,0.00063383,-0.00224379,-0.00072799,
 -0.00000229,-0.00027687,0.00014850,-0.00018583,-0.00065347,0.00050268,
 0.00010941,0.00007567,-0.00016258,0.00001315,0.00005185,-0.00001667,-0
 .00006936,0.00006856,-0.00015815,0.00006082,0.00005616,0.00005708,-0.0
 0182222,-0.00273222,0.00177261,-0.00019643,-0.00005688,-0.00003265,-0.
 00002103,0.00007778,-0.00003087,0.00037434,-0.00089899,-0.00069858,0.0
 0008047,0.00004217,0.00000144,0.00024917,-0.00021428,-0.00001480,0.000
 05318,0.00008690,-0.00000469,-0.00035327,0.00060460,-0.00020773,0.0002
 3499,0.00061938,0.00042561,-0.00004782,-0.00004910,0.00016260,0.000135
 59,-0.00004877,-0.00004557,-0.00011465,-0.00017875,0.00009899,0.000187
 92,-0.00031991,-0.00028534,-0.00006032,-0.00023360,0.00012761,-0.13576
 861,0.11920556,0.06441128,0.00120402,-0.00201005,-0.00105956,-0.011003
 59,0.02218372,0.01429077,0.14202885,-0.00051885,-0.00001833,0.00026777
 ,-0.00059206,0.00000040,-0.00005535,0.00189115,0.00040703,0.00046968,0
 .00009931,-0.00005321,-0.00002521,0.00011920,0.00011540,-0.00003686,0.
 00015347,0.00003737,0.00000080,-0.00001042,0.00001489,0.00001312,-0.00
 002166,-0.00001718,0.00000261,0.00003910,0.00003521,0.00000079,0.00011
 482,0.00010865,0.00000646,-0.00041243,-0.00022807,-0.00021158,-0.00609
 502,-0.00186470,0.00033738,0.00255501,-0.00127832,-0.00082145,0.001473
 72,-0.00007086,-0.00124689,0.01075623,-0.02934555,-0.00905089,0.002130
 51,-0.00005415,-0.00136014,-0.00029634,0.00004509,-0.00011013,-0.00090
 473,0.00029423,0.00086250,0.00029762,0.00060702,0.00023892,0.00001295,
 0.00013300,-0.00007485,-0.00028207,0.00005198,-0.00028351,0.00012182,0
 .00006755,0.00011137,-0.00217252,-0.00184105,0.00352130,-0.00026506,0.
 00010411,-0.00006231,-0.00004312,0.00007801,-0.00004348,0.00023172,-0.
 00103959,-0.00076682,0.00008839,-0.00001375,-0.00000522,0.00011448,-0.
 00004051,0.00007121,0.00003802,0.00004196,-0.00000732,-0.00027174,-0.0
 0083532,-0.00070663,-0.00016676,-0.00008563,-0.00018361,0.00002212,-0.
 00006493,0.00008385,0.00004728,-0.00002074,0.00029764,-0.00000406,0.00
 024347,-0.00008833,0.00011376,0.00077954,0.00031854,0.00000708,0.00004
 208,0.00005519,0.10960713,-0.19768818,-0.08403383,-0.00363450,0.006005
 00,0.00234625,-0.00000388,0.00297601,0.00089410,-0.11429550,0.22087171
 ,-0.00040126,-0.00010717,0.00019276,-0.00021120,-0.00001714,-0.0001499
 8,0.00106849,0.00021785,0.00022462,0.00005751,-0.00003316,-0.00002963,
 0.00004808,0.00007004,-0.00003712,0.00008957,0.00002049,0.00000342,-0.
 00001087,0.00000314,0.00000542,-0.00001422,-0.00000739,0.00000276,0.00
 002496,0.00002225,0.00000132,0.00007319,0.00007680,-0.00000750,-0.0004
 8181,-0.00031910,-0.00030890,-0.00368567,-0.00123600,0.00111267,0.0014
 6991,-0.00006775,-0.00194424,0.00081837,0.00012228,-0.00095914,-0.0055
 4952,0.01150623,0.00411364,-0.00038851,0.00118355,0.00107553,0.0001051
 9,-0.00042049,-0.00002989,0.00032689,0.00040761,0.00013436,0.00007350,
 0.00020223,0.00004240,0.00007368,0.00014254,0.00002602,-0.00038497,-0.
 00000441,-0.00036433,0.00000967,0.00016874,-0.00009388,0.00085641,0.00
 105454,-0.00158328,0.00010537,-0.00003230,0.00010473,0.00019341,0.0000
 7639,0.00000619,-0.00009482,0.00048205,0.00051881,-0.00005282,0.000084
 03,-0.00000405,0.00000370,-0.00004233,-0.00014681,-0.00002031,0.000000
 73,0.00001810,0.00007129,0.00033687,0.00110490,0.00000410,-0.00003483,
 -0.00074151,0.00006365,0.00006431,-0.00005307,0.00005209,-0.00009241,-
 0.00032318,0.00002492,-0.00010811,-0.00000568,-0.00042230,0.00069053,-
 0.00215464,-0.00001428,-0.00006014,-0.00005035,0.06571180,-0.08892629,
 -0.10048462,0.01961337,-0.02256005,-0.01474943,-0.00527030,0.00962460,
 0.00638586,-0.07288719,0.08680315,0.11271520,-0.00004153,0.00000246,-0
 .00008991,-0.00004320,-0.00020187,-0.00017219,-0.00020208,-0.00004307,
 0.00018773,-0.00000980,-0.00000812,0.00001686,-0.00009672,0.00001551,-
 0.00007844,-0.00000851,-0.00000382,-0.00000548,0.00000526,0.00000585,0
 .00000878,0.00000164,0.00000480,-0.00000390,-0.00000477,-0.00000177,-0
 .00000418,-0.00000908,-0.00000441,0.00000610,-0.00001238,-0.00019002,0
 .00018889,0.00123553,0.00016860,-0.00047089,-0.00061554,-0.00009973,-0
 .00011184,-0.00087299,-0.00001681,0.00045449,0.00099271,0.00062468,0.0
 0012401,-0.00004142,0.00017506,-0.00034561,-0.00055072,0.00021364,0.00
 006657,0.00002084,-0.00002047,0.00005517,0.00004379,-0.00002165,0.0000
 3336,-0.00005719,-0.00013974,0.00017822,-0.00006525,-0.00045964,0.0000
 5066,0.00010076,0.00020007,-0.00002821,0.00000256,0.00012211,-0.000090
 58,-0.00007406,-0.00008135,-0.00002081,-0.00026549,0.00017513,0.000057
 06,0.00001981,0.00000151,-0.00008031,0.00000541,-0.00002425,0.00001381
 ,0.00022869,0.00015906,0.00007094,0.00010277,0.00008357,-0.00002522,-0
 .00006628,-0.00015499,-0.00004847,-0.00000617,-0.00001666,-0.00001061,
 0.00004274,0.00002978,0.00001666,-0.00000444,-0.00001653,0.00002423,0.
 00000462,0.00001213,-0.00000856,0.00001630,0.00000504,0.00000253,-0.00
 000306,-0.00000249,-0.00000006,-0.00200147,-0.00230475,0.00126460,-0.0
 8304323,-0.09126575,0.01408656,0.00028792,0.00039350,-0.00002747,0.000
 17723,-0.00011193,0.00006907,0.08540922,-0.00000071,0.00000885,0.00004
 269,-0.00018029,0.00006110,0.00007911,0.00009131,0.00004410,0.00004839
 ,0.00000530,-0.00000259,0.00000606,0.00007131,0.00004488,0.00005772,0.
 00000214,-0.00001251,-0.00001221,0.00000045,0.00000214,-0.00000130,-0.
 00000193,-0.00000354,-0.00000026,0.00000451,0.00000251,0.00000053,0.00
 000927,0.00001049,0.00000941,0.00003898,0.00014695,-0.00018383,-0.0000
 0104,-0.00001438,-0.00011795,0.00005271,0.00001066,0.00004519,-0.00013
 396,-0.00060584,-0.00035312,0.00070928,0.00186717,-0.00056776,0.000017
 62,-0.00002888,0.00006880,-0.00000783,0.00001297,-0.00002039,-0.000023
 14,0.00000282,0.00000913,0.00000091,0.00001718,-0.00000539,0.00001135,
 0.00000720,-0.00000141,-0.00002396,-0.00005823,0.00001922,0.00003914,0
 .00000578,0.00000589,-0.00027778,-0.00008808,-0.00050949,0.00000921,0.
 00008278,0.00010922,0.00030417,-0.00013568,0.00043650,0.00005970,-0.00
 000803,0.00023644,-0.00000901,0.00002681,-0.00001103,-0.00018722,-0.00
 013757,-0.00006273,-0.00001281,-0.00006604,0.00002438,-0.00008523,-0.0
 0004499,0.00002433,0.00001790,-0.00001692,0.00000182,-0.00006705,-0.00
 004257,-0.00000411,0.00001717,0.00004087,0.00001922,-0.00000457,0.0000
 0378,0.00001047,-0.00000972,0.00000413,-0.00000741,0.00000056,0.000005
 38,0.00000058,-0.00143467,-0.00505043,0.00131499,-0.09115722,-0.285945
 62,0.03852509,0.00002610,0.00009918,-0.00000246,0.00005145,0.00071388,
 -0.00015315,0.09906906,0.30592046,-0.00015699,0.00004117,-0.00000642,-
 0.00101012,-0.00019651,0.00025151,0.00044260,0.00008552,0.00073990,0.0
 0001752,-0.00004142,0.00007094,0.00001316,0.00003436,-0.00003285,0.000
 12261,0.00007892,-0.00000583,0.00001215,0.00003456,0.00002283,-0.00000
 922,-0.00000372,-0.00000513,0.00001418,0.00001066,-0.00000690,0.000032
 61,0.00004172,0.00002935,-0.00004194,-0.00034113,0.00008158,0.00094798
 ,-0.00009529,-0.00217040,-0.00051308,-0.00009058,0.00055823,0.00015349
 ,0.00040445,0.00100700,0.00003741,0.00188655,-0.00802499,-0.00088193,0
 .00034789,-0.00003337,-0.00005129,-0.00006358,-0.00005559,0.00010309,0
 .00000500,-0.00002592,0.00027237,0.00000721,-0.00003344,0.00001567,-0.
 00001880,0.00012437,0.00006048,-0.00009471,0.00004987,0.00003550,0.000
 07181,0.00002561,-0.00030883,-0.00164978,-0.00105244,-0.00000247,0.000
 08076,0.00015802,0.00024334,-0.00004408,0.00031124,0.00005163,0.000070
 82,0.00022754,-0.00006886,0.00006909,-0.00001701,0.00003420,-0.0000050
 1,-0.00001403,0.00001660,-0.00001676,0.00000720,0.00102004,0.00132773,
 0.00042750,-0.00009397,0.00011688,-0.00000536,0.00014635,0.00006360,-0
 .00003430,-0.00025426,0.00013281,-0.00061292,0.00002939,-0.00005065,-0
 .00004249,0.00004325,-0.00000155,-0.00002965,0.00000374,-0.00003734,0.
 00000867,0.01211050,0.03051141,-0.00485454,0.01329735,0.03581368,-0.05
 229301,-0.00034579,0.00025922,0.00096660,0.00086457,0.00010323,0.00109
 838,-0.01631439,-0.04156554,0.05917776,0.00000445,-0.00000792,-0.00001
 508,0.00007480,-0.00003881,-0.00002577,-0.00002154,0.00000059,-0.00000
 926,-0.00000679,0.00000437,-0.00000293,-0.00001756,-0.00002691,-0.0000
 0623,-0.00001267,0.00000934,0.00000240,0.00000080,0.00000009,0.0000023
 4,0.00000084,0.00000431,0.00000030,-0.00000100,-0.00000182,-0.00000084
 ,-0.00000369,-0.00002168,-0.00001130,0.00020954,-0.00010035,0.00039625
 ,-0.00000918,-0.00000673,0.00005024,0.00001274,0.00001357,0.00002077,-
 0.00009439,-0.00002415,-0.00004768,-0.00020360,0.00056354,0.00007469,-
 0.00031970,0.00000329,-0.00018322,-0.00035771,0.00056763,0.00007111,0.
 00003814,-0.00003238,-0.00002080,0.00005578,-0.00006508,0.00006510,-0.
 00005594,-0.00024328,0.00013553,0.00021263,-0.00038980,0.00005645,-0.0
 0004812,-0.00002271,-0.00003396,0.00036916,0.00025335,0.00084988,0.000
 09324,0.00009497,-0.00036713,-0.00107280,-0.00066078,0.00010770,-0.000
 11186,0.00009139,-0.00037969,0.00006697,-0.00005868,0.00006056,0.00012
 823,0.00070018,-0.00043882,-0.00007075,0.00010858,-0.00005621,0.000119
 34,-0.00012373,0.00000095,-0.00005400,-0.00001163,-0.00003964,0.000094
 73,0.00006512,0.00000036,-0.00002258,-0.00004240,0.00001954,0.00001772
 ,-0.00000807,-0.00002565,0.00001218,-0.00000329,-0.00002833,0.00000699
 ,-0.00000691,-0.00000968,0.00026486,-0.00111083,0.00091720,-0.16678555
 ,0.11545273,0.07350297,0.00032527,-0.00065906,-0.00022702,0.00097105,-
 0.00006746,-0.00049801,0.00859722,-0.00749696,-0.00604938,0.17420193,0
 .00005116,0.00000252,-0.00005129,0.00029774,-0.00006044,-0.00007685,-0
 .00021160,-0.00004967,-0.00010473,-0.00001044,0.00000489,-0.00000351,-
 0.00005254,-0.00002031,-0.00004117,-0.00003734,-0.00001009,0.00000336,
 0.00000164,-0.00000333,0.00000036,0.00000361,0.00000340,-0.00000094,-0
 .00000817,-0.00000438,-0.00000114,-0.00001495,-0.00001617,-0.00000670,
 -0.00014764,-0.00009113,0.00027946,0.00030604,0.00008073,0.00025869,-0
 .00016222,-0.00001837,-0.00010104,-0.00034804,-0.00008624,-0.00013252,
 -0.00027890,0.00080898,-0.00061587,-0.00024808,0.00003368,-0.00004495,
 -0.00009605,0.00004059,0.00006562,0.00002547,-0.00002730,0.00001563,0.
 00004204,-0.00003434,-0.00001041,-0.00001797,-0.00004730,0.00003663,0.
 00002151,-0.00010099,-0.00000152,-0.00000060,0.00001800,-0.00001559,-0
 .00102574,-0.00103034,0.00048818,-0.00000012,-0.00038070,0.00039959,-0
 .00068578,-0.00114761,0.00085695,0.00007524,0.00009947,0.00014658,-0.0
 0002984,-0.00016309,-0.00010659,0.00034154,-0.00025769,0.00054100,0.00
 003133,0.00002453,-0.00002720,0.00018700,0.00004700,0.00015317,-0.0000
 2331,0.00003308,-0.00003470,0.00008845,0.00004814,0.00001725,-0.000047
 68,0.00005158,-0.00008258,0.00001409,-0.00000233,-0.00002499,0.0000110
 8,-0.00000419,0.00001831,0.00000344,-0.00000734,0.00000020,-0.00529591
 ,0.00328201,0.00289395,0.11512438,-0.16044713,-0.07461523,0.00026493,0
 .00002937,-0.00058574,0.00000246,0.00090781,0.00122606,0.02074928,-0.0
 1746166,-0.01250030,-0.12529810,0.17376897,0.00014065,0.00001665,-0.00
 006131,0.00017812,-0.00000922,-0.00000722,-0.00040535,-0.00004287,-0.0
 0011306,-0.00002909,0.00001670,0.00000090,-0.00003445,-0.00005467,0.00
 001564,-0.00004403,0.00000301,0.00000437,0.00000461,-0.00000310,-0.000
 00112,0.00000585,0.00000889,0.00000015,-0.00000941,-0.00000985,-0.0000
 0016,-0.00003015,-0.00004838,-0.00001791,-0.00009490,0.00027142,0.0004
 2224,0.00110959,0.00024033,-0.00009510,-0.00062676,-0.00061699,-0.0001
 5419,-0.00030820,-0.00003611,0.00023258,-0.00006502,-0.00048040,0.0009
 7447,-0.00010201,-0.00002957,-0.00009844,-0.00015444,0.00008917,0.0000
 3219,-0.00016017,0.00005338,0.00013896,0.00008877,0.00011556,0.0000507
 8,-0.00002132,-0.00004569,0.00007432,0.00011701,-0.00007149,-0.0001264
 2,0.00004650,0.00004278,0.00005135,0.00085241,0.00008176,-0.00052852,0
 .00038385,0.00051450,0.00047966,0.00040332,0.00048058,0.00018666,-0.00
 013490,0.00007219,0.00033136,-0.00005483,-0.00000119,-0.00005740,-0.00
 085738,0.00028809,-0.00062097,-0.00023097,-0.00040460,0.00002633,0.000
 02980,-0.00031406,0.00016808,-0.00009522,-0.00011845,-0.00010884,0.000
 04910,-0.00003476,-0.00009210,0.00003836,0.00010458,0.00002381,0.00001
 528,0.00007696,-0.00003945,0.00004665,0.00013662,0.00012559,0.00000154
 ,0.00005092,-0.00000122,0.02119872,-0.02428077,-0.01505487,0.07157040,
 -0.07189993,-0.09672651,0.00066040,0.00011492,0.00165132,-0.00018123,0
 .00233467,-0.00599692,-0.00430335,0.00310655,0.00189970,-0.08005265,0.
 07898233,0.10610202,0.00002792,0.00000599,0.00003289,0.00006879,0.0000
 9886,0.00000295,-0.00002947,-0.00002456,-0.00013222,0.00000570,0.00000
 459,-0.00001182,0.00003818,0.00001664,0.00002091,-0.00000448,-0.000022
 06,0.00000060,-0.00000348,-0.00000661,-0.00000819,0.00000066,-0.000006
 72,0.00000161,-0.00000055,0.00000052,0.00000289,0.00000099,0.00001670,
 0.00001037,-0.00007828,0.00005617,-0.00022404,-0.00021889,0.00005480,0
 .00034515,0.00012114,-0.00005942,-0.00008260,0.00004417,-0.00015268,-0
 .00026695,0.00043288,-0.00016038,-0.00072692,0.00016211,0.00032170,-0.
 00010100,-0.00248845,0.00010334,0.00097160,-0.00003332,0.00000337,0.00
 002102,0.00005647,0.00000079,0.00001416,-0.00020146,-0.00037172,0.0003
 5023,-0.00198309,-0.00109795,0.00163023,0.00009092,0.00022575,-0.00007
 270,-0.00032035,-0.00040564,-0.00065594,-0.00014670,-0.00004350,0.0000
 6421,0.00019788,0.00012954,0.00025148,0.00009725,0.00002694,0.00014975
 ,-0.00001601,0.00001487,0.00000566,0.00016641,-0.00010103,0.00011336,0
 .00016920,0.00007014,-0.00001568,0.00008506,0.00015475,0.00005421,-0.0
 0000297,-0.00000325,0.00003342,-0.00003934,-0.00004116,0.00002659,-0.0
 0000733,0.00001826,-0.00007554,-0.00000357,0.00000480,0.00000476,-0.00
 000585,0.00000264,0.00003303,0.00001533,0.00000300,-0.00000601,0.00516
 115,0.00048037,0.00188577,-0.26595192,-0.01554418,-0.11086246,0.001109
 94,-0.00006050,0.00098137,0.00033856,0.00013519,-0.00062015,-0.0091996
 5,0.00050549,-0.00403927,-0.01660920,-0.00360140,-0.00894511,0.2889536
 4,0.00002987,-0.00000683,0.00002910,0.00015791,0.00008235,-0.00001095,
 -0.00000073,-0.00000021,-0.00015929,-0.00000023,0.00001043,-0.00001884
 ,0.00003587,-0.00001679,0.00002664,-0.00001488,-0.00000919,0.00000402,
 -0.00000303,-0.00000713,-0.00000515,0.00000110,-0.00000094,0.00000215,
 -0.00000033,-0.00000094,0.00000214,-0.00000324,-0.00000850,-0.00000883
 ,-0.00001860,0.00003217,0.00004225,-0.00049153,-0.00002016,0.00046631,
 0.00028595,0.00001491,-0.00004452,0.00003246,-0.00025256,-0.00048281,0
 .00081423,0.00063341,-0.00057948,-0.00010796,0.00005496,0.00011972,-0.
 00029330,0.00031971,0.00031062,-0.00002910,0.00000563,-0.00007635,0.00
 010730,-0.00000998,-0.00003362,-0.00000251,-0.00006074,-0.00008563,-0.
 00008877,0.00042536,0.00012882,-0.00026113,-0.00035766,0.00004483,0.00
 069637,-0.00001400,0.00012986,0.00029344,-0.00013089,0.00024761,0.0001
 2738,-0.00094478,0.00035179,-0.00010642,0.00007649,-0.00014894,-0.0000
 0084,0.00003187,-0.00000209,-0.00023351,0.00002744,-0.00013818,-0.0001
 2347,-0.00013640,0.00001851,0.00014097,-0.00005918,0.00021848,-0.00005
 222,0.00002045,-0.00005633,0.00000868,0.00000709,-0.00003677,-0.000039
 28,-0.00002372,-0.00001898,0.00000779,-0.00001806,-0.00001952,0.000011
 17,-0.00000643,-0.00001925,0.00000037,-0.00000400,0.00000792,0.0044111
 2,-0.00153141,0.00357634,-0.01537938,-0.05028929,-0.01050220,-0.000043
 20,0.00098960,0.00104062,-0.00069130,-0.00012134,-0.00036477,-0.027021
 03,0.00058151,-0.01478230,0.01859645,0.00218740,0.01129956,0.01924756,
 0.04853032,0.00002487,0.00003717,-0.00000970,0.00009398,0.00002304,-0.
 00002295,-0.00006009,-0.00003312,-0.00001569,0.00000642,-0.00000354,0.
 00000416,-0.00001069,0.00003717,-0.00004030,-0.00001536,-0.00002925,0.
 00000044,-0.00000062,-0.00000170,-0.00000340,-0.00000042,-0.00000967,-
 0.00000098,-0.00000283,-0.00000026,-0.00000008,0.00000558,0.00002861,0
 .00002730,-0.00078255,0.00021389,0.00002269,0.00011965,0.00027961,0.00
 011815,0.00000246,-0.00021018,-0.00003384,-0.00005882,-0.00014404,0.00
 003455,0.00020942,-0.00006245,0.00147019,-0.00058093,0.00033806,-0.000
 71031,-0.00040711,0.00106614,-0.00025890,-0.00002249,0.00001853,0.0000
 0019,0.00025484,-0.00007284,0.00013233,-0.00011151,-0.00041450,0.00043
 827,0.00142462,-0.00070878,-0.00013947,0.00011775,0.00007858,0.0000854
 8,0.00024339,0.00002637,-0.00036130,0.00009306,-0.00007529,0.00027578,
 -0.00016515,0.00062299,0.00019060,0.00001636,0.00010774,0.00015043,0.0
 0001987,0.00005437,0.00000708,-0.00003178,-0.00008761,-0.00016127,0.00
 003723,-0.00008792,0.00001231,-0.00002764,-0.00008651,-0.00004870,-0.0
 0000321,-0.00004557,0.00005507,0.00006254,-0.00014669,0.00010331,0.000
 12270,0.00012853,-0.00006787,0.00002169,0.00002898,-0.00000841,-0.0000
 6235,0.00009761,0.00010801,0.00005355,0.00004928,-0.00006943,-0.032646
 71,-0.00398210,-0.01325845,-0.10883617,-0.00941153,-0.10707140,0.00314
 405,0.00063547,-0.00598817,0.00045485,0.00003387,0.00133107,0.00526419
 ,-0.00062220,0.00211281,0.01219494,0.00280224,0.00690925,0.11983840,0.
 00952753,0.11468114\\-0.00000037,0.00000034,-0.00000018,-0.00000064,0.
 00000048,-0.00000025,-0.00000021,-0.00000019,-0.00000011,-0.00000033,0
 .00000041,-0.00000029,-0.00000060,0.00000071,-0.00000051,-0.00000097,0
 .00000064,-0.00000015,-0.00000004,0.00000029,-0.00000037,-0.00000061,0
 .00000036,-0.00000006,-0.00000045,0.00000073,-0.00000066,0.00000002,0.
 00000040,-0.00000062,0.00000027,0.00000054,-0.00000088,0.00000031,0.00
 000007,0.00000058,-0.00000048,-0.00000033,0.00000056,-0.00000074,0.000
 00036,0.00000012,0.00000026,-0.00000024,0.00000011,0.00000034,-0.00000
 051,0.00000048,-0.00000012,-0.00000054,0.00000082,0.00000029,-0.000000
 68,0.00000075,0.00000062,-0.00000069,0.00000048,-0.00000003,-0.0000007
 9,0.00000112,-0.00000045,-0.00000040,0.00000092,-0.00000017,-0.0000003
 7,0.00000066,0.00000021,0.,-0.00000015,0.00000028,0.00000030,-0.000000
 68,-0.00000012,0.00000008,-0.00000003,0.00000049,-0.00000019,-0.000000
 12,0.00000019,0.00000047,-0.00000080,0.00000012,0.00000046,-0.00000073
 ,0.00000067,0.00000022,-0.00000084,0.00000068,-0.00000029,-0.00000015,
 0.00000082,-0.00000055,0.00000014,0.00000067,-0.00000005,-0.00000045,0
 .00000098,-0.00000040,-0.00000020,0.00000110,-0.00000053,-0.00000011,0
 .00000050,-0.00000049,0.00000024,0.00000095,-0.00000081,0.00000040,-0.
 00000017,-0.00000002,0.00000011,-0.00000060,0.00000021,0.00000015,-0.0
 0000010,0.00000014,-0.00000016,-0.00000023,-0.00000016,0.00000041,-0.0
 0000091,0.00000037,0.00000019,-0.00000064,0.00000048,-0.00000017,-0.00
 000077,0.00000018,0.00000042\\\@


 The most important thing in communication is to hear what isn't being said.
 -- Peter F. Drucker
 Job cpu time:       0 days  4 hours 36 minutes 15.0 seconds.
 Elapsed time:       0 days  0 hours  4 minutes 29.4 seconds.
 File lengths (MBytes):  RWF=    813 Int=      0 D2E=      0 Chk=     15 Scr=      2
 Normal termination of Gaussian 16 at Mon Mar 13 14:51:26 2023.
