 Entering Gaussian System, Link 0=g16
 Input=IRC_5_re.com
 Output=IRC_5_re.log
 Initial command:
 /opt/ohpc/pub/apps/gaussian/avx2/g16/l1.exe "/scratch/g16-tmp/Gau-2926149.inp" -scrdir="/scratch/g16-tmp/"
 Entering Link 1 = /opt/ohpc/pub/apps/gaussian/avx2/g16/l1.exe PID=   2926150.
  
 Copyright (c) 1988-2017, Gaussian, Inc.  All Rights Reserved.
  
 This is part of the Gaussian(R) 16 program.  It is based on
 the Gaussian(R) 09 system (copyright 2009, Gaussian, Inc.),
 the Gaussian(R) 03 system (copyright 2003, Gaussian, Inc.),
 the Gaussian(R) 98 system (copyright 1998, Gaussian, Inc.),
 the Gaussian(R) 94 system (copyright 1995, Gaussian, Inc.),
 the Gaussian 92(TM) system (copyright 1992, Gaussian, Inc.),
 the Gaussian 90(TM) system (copyright 1990, Gaussian, Inc.),
 the Gaussian 88(TM) system (copyright 1988, Gaussian, Inc.),
 the Gaussian 86(TM) system (copyright 1986, Carnegie Mellon
 University), and the Gaussian 82(TM) system (copyright 1983,
 Carnegie Mellon University). Gaussian is a federally registered
 trademark of Gaussian, Inc.
  
 This software contains proprietary and confidential information,
 including trade secrets, belonging to Gaussian, Inc.
  
 This software is provided under written license and may be
 used, copied, transmitted, or stored only in accord with that
 written license.
  
 The following legend is applicable only to US Government
 contracts under FAR:
  
                    RESTRICTED RIGHTS LEGEND
  
 Use, reproduction and disclosure by the US Government is
 subject to restrictions as set forth in subparagraphs (a)
 and (c) of the Commercial Computer Software - Restricted
 Rights clause in FAR 52.227-19.
  
 Gaussian, Inc.
 340 Quinnipiac St., Bldg. 40, Wallingford CT 06492
  
  
 ---------------------------------------------------------------
 Warning -- This program may not be used in any manner that
 competes with the business of Gaussian, Inc. or will provide
 assistance to any competitor of Gaussian, Inc.  The licensee
 of this program is prohibited from giving any competitor of
 Gaussian, Inc. access to this program.  By using this program,
 the user acknowledges that Gaussian, Inc. is engaged in the
 business of creating and licensing software in the field of
 computational chemistry and represents and warrants to the
 licensee that it is not a competitor of Gaussian, Inc. and that
 it will not use this program in any manner prohibited above.
 ---------------------------------------------------------------
  

 Cite this work as:
 Gaussian 16, Revision B.01,
 M. J. Frisch, G. W. Trucks, H. B. Schlegel, G. E. Scuseria, 
 M. A. Robb, J. R. Cheeseman, G. Scalmani, V. Barone, 
 G. A. Petersson, H. Nakatsuji, X. Li, M. Caricato, A. V. Marenich, 
 J. Bloino, B. G. Janesko, R. Gomperts, B. Mennucci, H. P. Hratchian, 
 J. V. Ortiz, A. F. Izmaylov, J. L. Sonnenberg, D. Williams-Young, 
 F. Ding, F. Lipparini, F. Egidi, J. Goings, B. Peng, A. Petrone, 
 T. Henderson, D. Ranasinghe, V. G. Zakrzewski, J. Gao, N. Rega, 
 G. Zheng, W. Liang, M. Hada, M. Ehara, K. Toyota, R. Fukuda, 
 J. Hasegawa, M. Ishida, T. Nakajima, Y. Honda, O. Kitao, H. Nakai, 
 T. Vreven, K. Throssell, J. A. Montgomery, Jr., J. E. Peralta, 
 F. Ogliaro, M. J. Bearpark, J. J. Heyd, E. N. Brothers, K. N. Kudin, 
 V. N. Staroverov, T. A. Keith, R. Kobayashi, J. Normand, 
 K. Raghavachari, A. P. Rendell, J. C. Burant, S. S. Iyengar, 
 J. Tomasi, M. Cossi, J. M. Millam, M. Klene, C. Adamo, R. Cammi, 
 J. W. Ochterski, R. L. Martin, K. Morokuma, O. Farkas, 
 J. B. Foresman, and D. J. Fox, Gaussian, Inc., Wallingford CT, 2016.
 
 ******************************************
 Gaussian 16:  ES64L-G16RevB.01 20-Dec-2017
                13-Mar-2023 
 ******************************************
 %nprocshared=64
 Will use up to   64 processors via shared memory.
 %mem=64GB
 %chk=IRC_5_re.chk
 ----------------------------------------------------------------------
 # irc=(calcfc,maxpoints=80,recalc=3) cam-b3lyp/gen nosymm pseudo=read 
 scf=xqc
 ----------------------------------------------------------------------
 1/10=4,18=10,26=3,38=1,42=80,44=3,71=3,172=1/1,23;
 2/12=2,15=1,17=6,18=5,29=1,40=1/2;
 3/5=7,11=2,16=1,17=8,25=1,30=1,71=2,74=-40,140=1/1,2,3;
 4//1;
 5/5=2,8=3,13=1,38=5/2,8;
 8/6=4,10=90,11=11/1;
 11/6=1,8=1,9=11,15=111,16=1,31=1/1,2,10;
 10/6=1,13=1,31=1/2;
 6/7=2,8=2,9=2,10=2,28=1/1;
 7/10=1,18=20,25=1,30=1/1,2,3,16;
 1/10=4,18=10,26=3,42=80,44=3,71=3/23(2);
 2/15=1,29=1/2;
 99/5=20/99;
 2/15=1,29=1/2;
 3/5=7,6=1,11=2,16=1,17=8,25=1,30=1,71=2,74=-40,82=7,140=1/1,2,3;
 4/5=5,16=3,69=1/1;
 5/5=2,8=3,13=1,38=5/2,8;
 8/6=4,10=90,11=11/1;
 11/6=1,8=1,9=11,15=111,16=1,31=1/1,2,10;
 10/6=1,13=1,31=1/2;
 7/10=1,18=20,25=1,30=1/1,2,3,16;
 1/18=10,26=3,42=80,44=3,71=3/23(-8);
 2/15=1,29=1/2;
 6/7=2,8=2,9=2,10=2,19=2,28=1/1;
 99/5=20,9=1/99;
 --------
 IRC_5_re
 --------
 Symbolic Z-matrix:
 Charge =  0 Multiplicity = 1
 C                     0.4878    0.05793   0.04712 
 C                     0.58674   1.15227  -0.99914 
 O                    -0.68955  -0.73347  -0.22472 
 C                     0.42629   0.61532   1.45596 
 H                     0.72496   0.90384  -2.03737 
 H                     0.56875   2.19227  -0.72867 
 H                     0.31544  -0.19214   2.18393 
 H                    -0.42296   1.29734   1.55443 
 H                     1.35      1.15841   1.66265 
 H                     1.32817  -0.62248  -0.06655 
 Br                    3.04312   1.34251  -0.85916 
 C                    -1.68378  -0.00073  -0.85217 
 O                    -2.76594  -0.56535  -1.02422 
 O                    -1.31776   1.15915  -1.19295 
 N                    -2.79533  -4.17321  -0.78827 
 C                    -3.99981  -3.2537   -0.57017 
 C                    -5.06635  -3.23587  -1.65409 
 H                    -3.58282  -2.25002  -0.44168 
 H                    -4.45181  -3.59423   0.36385 
 H                    -5.78156  -2.46283  -1.36314 
 H                    -4.68347  -2.95604  -2.63363 
 H                    -5.61818  -4.17442  -1.7394 
 C                    -3.25459  -5.46494  -1.42043 
 C                    -2.20414  -6.55273  -1.57756 
 H                    -3.66612  -5.20568  -2.39366 
 H                    -4.07983  -5.82196  -0.79962 
 H                    -2.68921  -7.40974  -2.05084 
 H                    -1.37933  -6.25296  -2.22598 
 H                    -1.79734  -6.89718  -0.62582 
 C                    -2.19985  -4.48605   0.57679 
 C                    -1.98178  -3.29565   1.49835 
 H                    -1.25183  -4.98839   0.38419 
 H                    -2.87691  -5.20964   1.03864 
 H                    -1.41578  -3.65709   2.36076 
 H                    -1.41419  -2.48613   1.03585 
 H                    -2.91911  -2.88252   1.87181 
 C                    -1.70259  -3.50493  -1.61381 
 C                    -2.09509  -3.00471  -2.99074 
 H                    -0.90193  -4.24267  -1.67847 
 H                    -1.34657  -2.66035  -1.02669 
 H                    -1.17184  -2.69267  -3.48567 
 H                    -2.55972  -3.76327  -3.62593 
 H                    -2.72759  -2.12067  -2.9148 
 
 IRC-IRC-IRC-IRC-IRC-IRC-IRC-IRC-IRC-IRC-IRC-IRC-IRC-IRC-IRC-IRC-IRC-IRC
 ------------------------------------------------------------------------
 INPUT DATA FOR L123
 ------------------------------------------------------------------------
 GENERAL PARAMETERS:
 Follow reaction path in both directions.
 Maximum points per path      =  80
 Step size                    =   0.100 bohr
 Integration scheme           = HPC                                 
    Redo corrector integration= Yes                                 
    DWI Weight Power          =  2
    DWI will use Hessian update vectors when possible.
    Max correction cycles     =  20
 Initial Hessian              = CalcFC
 Hessian evaluation           = Analytic every   3 predictor steps
                              = Update at all corrector steps
 Hessian updating method      = Bofill                              
 ------------------------------------------------------------------------
 IRC-IRC-IRC-IRC-IRC-IRC-IRC-IRC-IRC-IRC-IRC-IRC-IRC-IRC-IRC-IRC-IRC-IRC
                          Input orientation:                          
 ---------------------------------------------------------------------
 Center     Atomic      Atomic             Coordinates (Angstroms)
 Number     Number       Type             X           Y           Z
 ---------------------------------------------------------------------
      1          6           0        0.487804    0.057931    0.047121
      2          6           0        0.586735    1.152267   -0.999142
      3          8           0       -0.689545   -0.733465   -0.224719
      4          6           0        0.426287    0.615320    1.455958
      5          1           0        0.724962    0.903842   -2.037374
      6          1           0        0.568749    2.192270   -0.728671
      7          1           0        0.315437   -0.192139    2.183931
      8          1           0       -0.422963    1.297341    1.554427
      9          1           0        1.350000    1.158405    1.662652
     10          1           0        1.328172   -0.622483   -0.066549
     11         35           0        3.043120    1.342508   -0.859155
     12          6           0       -1.683777   -0.000732   -0.852174
     13          8           0       -2.765938   -0.565353   -1.024224
     14          8           0       -1.317755    1.159148   -1.192947
     15          7           0       -2.795332   -4.173210   -0.788272
     16          6           0       -3.999814   -3.253695   -0.570170
     17          6           0       -5.066349   -3.235868   -1.654094
     18          1           0       -3.582817   -2.250017   -0.441684
     19          1           0       -4.451815   -3.594232    0.363850
     20          1           0       -5.781559   -2.462825   -1.363137
     21          1           0       -4.683470   -2.956039   -2.633631
     22          1           0       -5.618184   -4.174422   -1.739397
     23          6           0       -3.254590   -5.464941   -1.420428
     24          6           0       -2.204143   -6.552725   -1.577560
     25          1           0       -3.666124   -5.205678   -2.393656
     26          1           0       -4.079826   -5.821959   -0.799618
     27          1           0       -2.689212   -7.409744   -2.050839
     28          1           0       -1.379327   -6.252956   -2.225977
     29          1           0       -1.797343   -6.897177   -0.625817
     30          6           0       -2.199846   -4.486052    0.576794
     31          6           0       -1.981775   -3.295651    1.498347
     32          1           0       -1.251828   -4.988390    0.384192
     33          1           0       -2.876905   -5.209641    1.038639
     34          1           0       -1.415779   -3.657089    2.360763
     35          1           0       -1.414190   -2.486134    1.035850
     36          1           0       -2.919108   -2.882519    1.871805
     37          6           0       -1.702589   -3.504934   -1.613809
     38          6           0       -2.095094   -3.004713   -2.990742
     39          1           0       -0.901929   -4.242673   -1.678472
     40          1           0       -1.346567   -2.660350   -1.026695
     41          1           0       -1.171835   -2.692665   -3.485670
     42          1           0       -2.559719   -3.763265   -3.625929
     43          1           0       -2.727585   -2.120665   -2.914803
 ---------------------------------------------------------------------
                    Distance matrix (angstroms):
                    1          2          3          4          5
     1  C    0.000000
     2  C    1.517243   0.000000
     3  O    1.444422   2.405121   0.000000
     4  C    1.516341   2.518248   2.426721   0.000000
     5  H    2.262063   1.076451   2.822645   3.517928   0.000000
     6  H    2.272401   1.074748   3.224468   2.698086   1.843137
     7  H    2.158287   3.465975   2.665449   1.092805   4.380445
     8  H    2.153510   2.749773   2.713042   1.093652   3.791254
     9  H    2.136438   2.769072   3.361709   1.091288   3.761073
    10  H    1.087245   2.137568   2.026948   2.159532   2.564699
    11  Br   3.000186   2.467715   4.317981   3.568804   2.637136
    12  C    2.351156   2.550731   1.385314   3.187376   2.832839
    13  O    3.481824   3.767129   2.231340   4.211365   3.920636
    14  O    2.451630   1.914338   2.216776   3.217783   2.225069
    15  N    5.420278   6.312175   4.072318   6.192368   6.303109
    16  C    5.611295   6.374398   4.174779   6.218106   6.462299
    17  C    6.677714   7.186240   5.240377   7.394128   7.129052
    18  H    4.704839   5.410311   3.273840   5.280541   5.572254
    19  H    6.151296   7.055068   4.762885   6.535205   7.266193
    20  H    6.902750   7.331886   5.496843   7.480617   7.356892
    21  H    6.558393   6.879302   5.166636   7.455800   6.671232
    22  H    7.641175   8.211127   6.198864   8.347907   8.130994
    23  C    6.830910   7.662943   5.513260   7.667596   7.535174
    24  C    7.320310   8.215258   6.163438   8.215976   8.024430
    25  H    7.135691   7.775278   5.793531   8.090202   7.532251
    26  H    7.493552   8.393833   6.141440   8.175038   8.357896
    27  H    8.382186   9.227455   7.204588   9.295462   8.987351
    28  H    6.962790   7.759372   5.911482   7.999381   7.462128
    29  H    7.351753   8.403377   6.275304   8.106536   8.319280
    30  C    5.305827   6.483768   4.123753   5.804610   6.666283
    31  C    4.410373   5.711276   3.347180   4.593066   6.120743
    32  H    5.348392   6.557560   4.334896   5.946959   6.670088
    33  H    6.328640   7.524841   5.139725   6.709352   7.733691
    34  H    4.772624   6.199107   3.969850   4.739763   6.687935
    35  H    3.326775   4.624160   2.277278   3.630821   5.051001
    36  H    4.856209   6.067353   3.739625   4.857929   6.549615
    37  C    4.500057   5.225738   3.261421   5.561661   5.050715
    38  C    5.027898   5.332838   3.845129   6.263796   4.913087
    39  H    4.837791   5.637640   3.804346   5.932024   5.409455
    40  H    3.450659   4.274864   2.188088   4.476225   4.244546
    41  H    4.775018   4.904986   3.834693   6.157633   4.316279
    42  H    6.113937   6.400206   4.923969   7.342603   5.924063
    43  H    4.884465   5.036522   3.648902   6.044508   4.673072
                    6          7          8          9         10
     6  H    0.000000
     7  H    3.772641   0.000000
     8  H    2.645171   1.777656   0.000000
     9  H    2.719863   1.779332   1.781688   0.000000
    10  H    2.989643   2.505092   3.062640   2.482373   0.000000
    11  Br   2.619472   4.365291   4.223878   3.043035   2.725887
    12  C    3.146170   3.640251   3.011042   4.107524   3.174211
    13  O    4.337277   4.463902   3.950772   5.208799   4.205014
    14  O    2.200407   3.987054   2.892717   3.907859   3.382885
    15  N    7.199995   5.861723   6.406505   7.184492   5.489247
    16  C    7.110234   5.964863   6.166012   7.285096   5.963585
    17  C    7.878796   7.277248   7.239173   8.454583   7.088017
    18  H    6.087017   5.130799   5.152949   6.354389   5.187235
    19  H    7.738428   6.132995   6.447993   7.611537   6.513431
    20  H    7.899295   7.410200   7.166978   8.551482   7.457632
    21  H    7.597352   7.472424   7.333689   8.472866   6.940838
    22  H    8.935014   8.152235   8.232848   9.411088   7.979132
    23  C    8.586578   7.317031   7.911784   8.635760   6.803242
    24  C    9.213277   7.807314   8.637446   9.088038   7.065987
    25  H    8.685388   7.870369   8.270109   9.061826   7.166875
    26  H    9.265104   7.740463   8.342578   9.179938   7.537797
    27  H   10.225513   8.891289   9.692634  10.174401   8.132877
    28  H    8.795383   7.684596   8.497827   8.803348   6.610288
    29  H    9.392924   7.570737   8.590257   8.946243   7.032312
    30  C    7.346383   5.229458   6.128680   6.755767   5.271429
    31  C    6.448415   3.921606   4.850630   5.564740   4.533263
    32  H    7.490984   5.357182   6.447238   6.796106   5.091239
    33  H    8.353694   6.056242   6.973427   7.668646   6.320295
    34  H    6.906371   3.877403   5.116858   5.596952   4.757094
    35  H    5.378945   3.093883   3.945394   4.616957   3.494142
    36  H    6.684393   4.218750   4.878801   5.882015   5.186942
    37  C    6.196820   5.428616   5.893811   6.465309   4.459602
    38  C    6.262720   6.363841   6.477828   7.131220   5.093592
    39  H    6.668846   5.727736   6.432169   6.738393   4.547243
    40  H    5.225435   4.377493   4.814411   5.393232   3.497000
    41  H    5.873097   6.372518   6.471749   6.906201   4.714454
    42  H    7.324603   7.400942   7.550599   8.214489   6.135910
    43  H    5.852042   6.243099   6.080137   6.952129   5.177477
                   11         12         13         14         15
    11  Br   0.000000
    12  C    4.914051   0.000000
    13  O    6.116562   1.232668   0.000000
    14  O    4.377473   1.263099   2.258231   0.000000
    15  N    8.032166   4.318473   3.615684   5.548066   0.000000
    16  C    8.414958   4.003164   2.992624   5.201392   1.530965
    17  C    9.346494   4.748787   3.580541   5.794893   2.604952
    18  H    7.548746   2.972228   1.960800   4.161407   2.106876
    19  H    9.057659   4.696168   3.734038   5.902590   2.099175
    20  H    9.623384   4.807786   3.578999   5.750930   3.489045
    21  H    9.018119   4.572263   3.461575   5.508028   2.907219
    22  H   10.306771   5.804000   4.655337   6.873083   2.978781
    23  C    9.290723   5.713838   4.939810   6.905189   1.509672
    24  C    9.507080   6.612532   6.039074   7.772168   2.575766
    25  H    9.499863   5.779042   4.921209   6.889670   2.097982
    26  H   10.102945   6.295276   5.422975   7.517952   2.090078
    27  H   10.530036   7.572394   6.921381   8.720251   3.475700
    28  H    8.894791   6.408614   5.976264   7.483998   2.897828
    29  H    9.559128   6.901093   6.417858   8.090489   2.905576
    30  C    7.970116   4.735649   4.272657   5.981501   1.521801
    31  C    7.233250   4.058355   3.799053   5.246830   2.580816
    32  H    7.750662   5.156735   4.882563   6.346963   2.102759
    33  H    9.032108   5.668462   5.083024   6.926211   2.102010
    34  H    7.432740   4.874806   4.779111   5.986201   3.476488
    35  H    6.173909   3.132816   3.124184   4.273747   2.842745
    36  H    7.801100   4.153408   3.712102   5.319033   2.959259
    37  C    6.825610   3.586067   3.181110   4.698817   1.523874
    38  C    7.059974   3.710331   3.204326   4.601528   2.589709
    39  H    6.886867   4.391824   4.174357   5.439514   2.093384
    40  H    5.943088   2.686584   2.530540   3.823223   2.108201
    41  H    6.398988   3.800512   3.622891   4.484901   3.479039
    42  H    8.069434   4.755801   4.127716   5.629567   2.876780
    43  H    7.037066   3.136573   2.448419   3.963532   2.956292
                   16         17         18         19         20
    16  C    0.000000
    17  C    1.520758   0.000000
    18  H    1.094424   2.154694   0.000000
    19  H    1.092091   2.139667   1.791914   0.000000
    20  H    2.104492   1.092601   2.393497   2.455766   0.000000
    21  H    2.194050   1.088298   2.552359   3.073410   1.750204
    22  H    2.198625   1.092100   3.087088   2.474002   1.760065
    23  C    2.483527   2.881985   3.376597   2.848956   3.924482
    24  C    3.888813   4.381737   4.658782   4.192110   5.437938
    25  H    2.691967   2.527397   3.543031   3.289059   3.613901
    26  H    2.579734   2.896761   3.624073   2.540630   3.807523
    27  H    4.602478   4.819692   5.478202   4.847228   5.874313
    28  H    4.313260   4.798333   4.905363   4.818319   5.872753
    29  H    4.257809   5.014872   4.981759   4.351449   6.006754
    30  C    2.464572   3.841440   2.819532   2.431471   4.548126
    31  C    2.890156   4.410902   2.724042   2.734471   4.829084
    32  H    3.386946   4.666531   3.689752   3.490560   5.472668
    33  H    2.770364   3.992525   3.383643   2.354831   4.663748
    34  H    3.928146   5.442717   3.811773   3.634436   5.861206
    35  H    3.139092   4.597409   2.634730   3.302519   4.982930
    36  H    2.696097   4.143364   2.488534   2.264874   4.339887
    37  C    2.535655   3.374745   2.546360   3.387824   4.217443
    38  C    3.090165   3.266254   3.046405   4.141854   4.066050
    39  H    3.435593   4.284465   3.561949   4.146474   5.203661
    40  H    2.756845   3.815970   2.347642   3.528217   4.452119
    41  H    4.100288   4.337854   3.908276   5.137110   5.080111
    42  H    3.416314   3.232565   3.670976   4.418929   4.146278
    43  H    2.898211   2.881472   2.620014   3.986720   3.442600
                   21         22         23         24         25
    21  H    0.000000
    22  H    1.777020   0.000000
    23  C    3.131796   2.711781   0.000000
    24  C    4.494274   4.163916   1.520330   0.000000
    25  H    2.480616   2.302625   1.088003   2.148939   0.000000
    26  H    3.455646   2.442152   1.092649   2.158101   1.758382
    27  H    4.914489   4.375292   2.121162   1.092596   2.435115
    28  H    4.685425   4.746048   2.187804   1.091159   2.520783
    29  H    5.281441   4.822062   2.192322   1.090847   3.078760
    30  C    4.337759   4.140880   2.461626   2.985364   3.389898
    31  C    4.948508   4.947595   3.852937   4.485441   4.651121
    32  H    5.001387   4.923133   2.737665   2.683751   3.686798
    33  H    4.672041   4.037793   2.500967   3.016783   3.521865
    34  H    6.009430   5.893993   4.576785   4.951425   5.483309
    35  H    4.937013   5.312803   4.277109   4.898071   4.922259
    36  H    4.839146   4.689862   4.197648   5.087210   4.914189
    37  C    3.197964   3.974402   2.507535   3.088997   2.712224
    38  C    2.613348   3.917429   3.140548   3.820650   2.769277
    39  H    4.107044   4.717142   2.663745   2.653730   3.013244
    40  H    3.715454   4.587709   3.414866   4.023614   3.705081
    41  H    3.623109   5.001509   4.035915   4.427935   3.705294
    42  H    2.479231   3.616941   2.871024   3.478985   2.196175
    43  H    2.145319   3.735647   3.700685   4.658902   3.266459
                   26         27         28         29         30
    26  H    0.000000
    27  H    2.453655   0.000000
    28  H    3.084308   1.756312   0.000000
    29  H    2.529037   1.757510   1.774900   0.000000
    30  C    2.685793   3.961301   3.413316   2.724299   0.000000
    31  C    4.008078   5.479320   4.793661   4.185341   1.521141
    32  H    3.177077   3.722688   2.903165   2.227369   1.090035
    33  H    2.280601   3.797441   3.740182   2.604543   1.093294
    34  H    4.666028   5.930117   5.270487   4.423056   2.117661
    35  H    4.647826   5.949392   4.982939   4.729191   2.197194
    36  H    4.138125   5.994644   5.524725   4.859419   2.183050
    37  C    3.418006   4.051168   2.833879   3.534462   2.451244
    38  C    4.083756   4.543203   3.412956   4.564296   3.864279
    39  H    3.655894   3.655595   2.137500   2.992698   2.613436
    40  H    4.185456   5.040666   3.787634   4.279557   2.575354
    41  H    5.046164   5.158683   3.782268   5.123274   4.558142
    42  H    3.812739   3.974228   3.090591   4.404917   4.279581
    43  H    4.472375   5.359316   4.400921   5.377720   4.250272
                   31         32         33         34         35
    31  C    0.000000
    32  H    2.153957   0.000000
    33  H    2.162394   1.765822   0.000000
    34  H    1.093046   2.388739   2.508649   0.000000
    35  H    1.091501   2.590812   3.091445   1.768200   0.000000
    36  H    1.090294   3.070425   2.472133   1.760408   1.766556
    37  C    3.131654   2.528999   3.364599   3.987811   2.853388
    38  C    4.499934   4.004529   4.659275   5.433753   4.116552
    39  H    3.486416   2.221060   3.495461   4.113681   3.273436
    40  H    2.680100   2.723848   3.620279   3.531735   2.070994
    41  H    5.085275   4.500287   5.450853   5.930464   4.532718
    42  H    5.177923   4.392332   4.893956   6.095929   4.967442
    43  H    4.627388   4.613575   5.019340   5.649162   4.179262
                   36         37         38         39         40
    36  H    0.000000
    37  C    3.743905   0.000000
    38  C    4.933386   1.516650   0.000000
    39  H    4.303893   1.090640   2.162924   0.000000
    40  H    3.305079   1.088474   2.129873   1.768124   0.000000
    41  H    5.638399   2.108399   1.093039   2.396109   2.465387
    42  H    5.579422   2.202279   1.093042   2.602055   3.073138
    43  H    4.850641   2.158565   1.089657   3.060139   2.400713
                   41         42         43
    41  H    0.000000
    42  H    1.758431   0.000000
    43  H    1.753120   1.797780   0.000000
 Symmetry turned off by external request.
 Stoichiometry    C12H26BrNO3
 Framework group  C1[X(C12H26BrNO3)]
 Deg. of freedom   123
 Full point group                 C1      NOp   1
 Rotational constants (GHZ):           0.6315090           0.1288429           0.1240662
 General basis read from cards:  (5D, 7F)
 ======================================================================================================
                                       Pseudopotential Parameters
 ======================================================================================================
  Center     Atomic      Valence      Angular      Power
  Number     Number     Electrons     Momentum     of R      Exponent        Coefficient   SO-Coeffient
 ======================================================================================================
    1          6
                                   No pseudopotential on this center.
    2          6
                                   No pseudopotential on this center.
    3          8
                                   No pseudopotential on this center.
    4          6
                                   No pseudopotential on this center.
    5          1
                                   No pseudopotential on this center.
    6          1
                                   No pseudopotential on this center.
    7          1
                                   No pseudopotential on this center.
    8          1
                                   No pseudopotential on this center.
    9          1
                                   No pseudopotential on this center.
   10          1
                                   No pseudopotential on this center.
   11         35
                                   No pseudopotential on this center.
   12          6
                                   No pseudopotential on this center.
   13          8
                                   No pseudopotential on this center.
   14          8
                                   No pseudopotential on this center.
   15          7
                                   No pseudopotential on this center.
   16          6
                                   No pseudopotential on this center.
   17          6
                                   No pseudopotential on this center.
   18          1
                                   No pseudopotential on this center.
   19          1
                                   No pseudopotential on this center.
   20          1
                                   No pseudopotential on this center.
   21          1
                                   No pseudopotential on this center.
   22          1
                                   No pseudopotential on this center.
   23          6
                                   No pseudopotential on this center.
   24          6
                                   No pseudopotential on this center.
   25          1
                                   No pseudopotential on this center.
   26          1
                                   No pseudopotential on this center.
   27          1
                                   No pseudopotential on this center.
   28          1
                                   No pseudopotential on this center.
   29          1
                                   No pseudopotential on this center.
   30          6
                                   No pseudopotential on this center.
   31          6
                                   No pseudopotential on this center.
   32          1
                                   No pseudopotential on this center.
   33          1
                                   No pseudopotential on this center.
   34          1
                                   No pseudopotential on this center.
   35          1
                                   No pseudopotential on this center.
   36          1
                                   No pseudopotential on this center.
   37          6
                                   No pseudopotential on this center.
   38          6
                                   No pseudopotential on this center.
   39          1
                                   No pseudopotential on this center.
   40          1
                                   No pseudopotential on this center.
   41          1
                                   No pseudopotential on this center.
   42          1
                                   No pseudopotential on this center.
   43          1
                                   No pseudopotential on this center.
 ======================================================================================================
   382 basis functions,   713 primitive gaussians,   400 cartesian basis functions
    82 alpha electrons       82 beta electrons
       nuclear repulsion energy      1713.6643593111 Hartrees.
 NAtoms=   43 NActive=   43 NUniq=   43 SFac= 1.00D+00 NAtFMM=   60 NAOKFM=F Big=F
 Integral buffers will be    131072 words long.
 Raffenetti 2 integral format.
 Two-electron integral symmetry is turned off.
 One-electron integrals computed using PRISM.
   1 Symmetry operations used in ECPInt.
 ECPInt:  NShTT=   11935 NPrTT=   57376 LenC2=   10205 LenP2D=   30990.
 LDataN:  DoStor=T MaxTD1= 4 Len=   56
 NBasis=   382 RedAO= T EigKep=  4.18D-03  NBF=   382
 NBsUse=   382 1.00D-06 EigRej= -1.00D+00 NBFU=   382
 ExpMin= 1.43D-01 ExpMax= 5.74D+05 ExpMxC= 5.74D+03 IAcc=3 IRadAn=         5 AccDes= 0.00D+00
 Harris functional with IExCor=20419 and IRadAn=       5 diagonalized for initial guess.
 HarFok:  IExCor=20419 AccDes= 0.00D+00 IRadAn=         5 IDoV= 1 UseB2=F ITyADJ=14
 ICtDFT=  3500011 ScaDFX=  1.000000  1.000000  1.000000  1.000000
 FoFCou: FMM=F IPFlag=           0 FMFlag=      100000 FMFlg1=           0
         NFxFlg=           0 DoJE=T BraDBF=F KetDBF=T FulRan=T
         wScrn=  0.000000 ICntrl=       500 IOpCl=  0 I1Cent=   200000004 NGrid=           0
         NMat0=    1 NMatS0=      1 NMatT0=    0 NMatD0=    1 NMtDS0=    0 NMtDT0=    0
 Symmetry not used in FoFCou.
 Requested convergence on RMS density matrix=1.00D-08 within  32 cycles.
 Requested convergence on MAX density matrix=1.00D-06.
 Requested convergence on             energy=1.00D-06.
 No special actions if energy rises.
 Integral accuracy reduced to 1.0D-05 until final iterations.
 Initial convergence to 1.0D-05 achieved.  Increase integral accuracy.
 SCF Done:  E(RCAM-B3LYP) =  -3324.45116302     A.U. after   15 cycles
            NFock= 15  Conv=0.20D-08     -V/T= 2.0015
 QCSCF skips out because SCF is already converged.
 DoSCS=F DFT=T ScalE2(SS,OS)=  1.000000  1.000000
 Range of M.O.s used for correlation:     1   382
 NBasis=   382 NAE=    82 NBE=    82 NFC=     0 NFV=     0
 NROrb=    382 NOA=    82 NOB=    82 NVA=   300 NVB=   300
   1 Symmetry operations used in ECPInt.
 ECPInt:  NShTT=   11935 NPrTT=   57376 LenC2=   10205 LenP2D=   30990.
 LDataN:  DoStor=T MaxTD1= 5 Len=  102
 Number of processors reduced to  27 by ecpmxn.
 Symmetrizing basis deriv contribution to polar:
 IMax=3 JMax=2 DiffMx= 0.00D+00
 G2DrvN: will do    44 centers at a time, making    1 passes.
 Calling FoFCou, ICntrl=  3107 FMM=F I1Cent=   0 AccDes= 0.00D+00.
 End of G2Drv F.D. properties file   721 does not exist.
 End of G2Drv F.D. properties file   722 does not exist.
 End of G2Drv F.D. properties file   788 does not exist.
          IDoAtm=1111111111111111111111111111111111111111111
          Differentiating once with respect to nuclear coordinates.
 CalDSu exits because no D1Ps are significant.
          There are   132 degrees of freedom in the 1st order CPHF.  IDoFFX=6 NUNeed=     0.
    126 vectors produced by pass  0 Test12= 2.46D-14 1.00D-09 XBig12= 1.19D-01 1.79D-01.
 AX will form   126 AO Fock derivatives at one time.
    126 vectors produced by pass  1 Test12= 2.46D-14 1.00D-09 XBig12= 6.57D-03 1.45D-02.
    126 vectors produced by pass  2 Test12= 2.46D-14 1.00D-09 XBig12= 2.00D-04 2.61D-03.
    126 vectors produced by pass  3 Test12= 2.46D-14 1.00D-09 XBig12= 1.70D-06 1.54D-04.
    126 vectors produced by pass  4 Test12= 2.46D-14 1.00D-09 XBig12= 7.70D-09 1.10D-05.
    126 vectors produced by pass  5 Test12= 2.46D-14 1.00D-09 XBig12= 2.67D-11 7.96D-07.
     50 vectors produced by pass  6 Test12= 2.46D-14 1.00D-09 XBig12= 9.77D-14 3.49D-08.
      3 vectors produced by pass  7 Test12= 2.46D-14 1.00D-09 XBig12= 3.17D-16 1.81D-09.
 InvSVY:  IOpt=1 It=  1 EMax= 4.79D-16
 Solved reduced A of dimension   809 with   132 vectors.
 End of Minotr F.D. properties file   721 does not exist.
 End of Minotr F.D. properties file   722 does not exist.
 End of Minotr F.D. properties file   788 does not exist.

 **********************************************************************

            Population analysis using the SCF Density.

 **********************************************************************

 Alpha  occ. eigenvalues -- -482.59376 -61.67613 -56.24458 -56.24301 -56.24294
 Alpha  occ. eigenvalues --  -19.22660 -19.17666 -19.15821 -14.56565 -10.38281
 Alpha  occ. eigenvalues --  -10.36202 -10.35613 -10.33533 -10.33334 -10.31241
 Alpha  occ. eigenvalues --  -10.29697 -10.29676 -10.29015 -10.28459 -10.28149
 Alpha  occ. eigenvalues --  -10.22351  -8.45744  -6.47020  -6.46504  -6.46496
 Alpha  occ. eigenvalues --   -2.59252  -2.59115  -2.59109  -2.58700  -2.58700
 Alpha  occ. eigenvalues --   -1.17028  -1.13303  -1.06120  -1.03535  -0.91987
 Alpha  occ. eigenvalues --   -0.90650  -0.90003  -0.85470  -0.84724  -0.78488
 Alpha  occ. eigenvalues --   -0.76938  -0.75959  -0.75327  -0.68928  -0.68755
 Alpha  occ. eigenvalues --   -0.67069  -0.63316  -0.63161  -0.60983  -0.59571
 Alpha  occ. eigenvalues --   -0.58707  -0.57263  -0.55336  -0.54471  -0.53464
 Alpha  occ. eigenvalues --   -0.52470  -0.51907  -0.51524  -0.50528  -0.50031
 Alpha  occ. eigenvalues --   -0.49192  -0.49063  -0.48958  -0.48267  -0.47801
 Alpha  occ. eigenvalues --   -0.47045  -0.46859  -0.46122  -0.45408  -0.44939
 Alpha  occ. eigenvalues --   -0.44485  -0.43719  -0.42559  -0.41736  -0.39312
 Alpha  occ. eigenvalues --   -0.35000  -0.33406  -0.31637  -0.30773  -0.23752
 Alpha  occ. eigenvalues --   -0.23362  -0.23312
 Alpha virt. eigenvalues --    0.06666   0.07389   0.09200   0.09962   0.11027
 Alpha virt. eigenvalues --    0.11568   0.12912   0.13866   0.14521   0.14886
 Alpha virt. eigenvalues --    0.15447   0.15857   0.16932   0.17377   0.17780
 Alpha virt. eigenvalues --    0.17834   0.18451   0.18955   0.19664   0.20273
 Alpha virt. eigenvalues --    0.20869   0.21371   0.21966   0.22504   0.22719
 Alpha virt. eigenvalues --    0.23340   0.24072   0.24345   0.25506   0.26169
 Alpha virt. eigenvalues --    0.26211   0.26863   0.28173   0.28337   0.29043
 Alpha virt. eigenvalues --    0.30078   0.30122   0.32567   0.34425   0.35326
 Alpha virt. eigenvalues --    0.46562   0.47352   0.48432   0.49190   0.49853
 Alpha virt. eigenvalues --    0.51334   0.53050   0.54294   0.55308   0.56040
 Alpha virt. eigenvalues --    0.56275   0.56927   0.57556   0.59400   0.59837
 Alpha virt. eigenvalues --    0.60492   0.60823   0.62445   0.63649   0.64444
 Alpha virt. eigenvalues --    0.64625   0.64654   0.64924   0.65683   0.65983
 Alpha virt. eigenvalues --    0.66635   0.66994   0.67449   0.68292   0.69181
 Alpha virt. eigenvalues --    0.70397   0.70645   0.71902   0.72447   0.73640
 Alpha virt. eigenvalues --    0.76265   0.77146   0.77607   0.78194   0.80479
 Alpha virt. eigenvalues --    0.81135   0.81853   0.83511   0.86041   0.87072
 Alpha virt. eigenvalues --    0.87288   0.88094   0.88661   0.89304   0.89687
 Alpha virt. eigenvalues --    0.89880   0.90438   0.91341   0.91967   0.92241
 Alpha virt. eigenvalues --    0.93509   0.93859   0.94304   0.95625   0.96086
 Alpha virt. eigenvalues --    0.96711   0.97498   0.97809   0.98252   0.98850
 Alpha virt. eigenvalues --    1.00448   1.01027   1.01623   1.02388   1.03594
 Alpha virt. eigenvalues --    1.04104   1.04808   1.05824   1.06100   1.07713
 Alpha virt. eigenvalues --    1.08190   1.09383   1.10875   1.14423   1.15513
 Alpha virt. eigenvalues --    1.16221   1.18833   1.21848   1.23506   1.25062
 Alpha virt. eigenvalues --    1.26802   1.27776   1.32834   1.34883   1.36623
 Alpha virt. eigenvalues --    1.39745   1.41805   1.42643   1.44390   1.45292
 Alpha virt. eigenvalues --    1.46253   1.46650   1.52604   1.53085   1.54460
 Alpha virt. eigenvalues --    1.55574   1.56369   1.57673   1.61049   1.61808
 Alpha virt. eigenvalues --    1.61974   1.63267   1.65129   1.66855   1.69079
 Alpha virt. eigenvalues --    1.70341   1.71467   1.74558   1.75220   1.76811
 Alpha virt. eigenvalues --    1.78539   1.81731   1.83628   1.84437   1.85928
 Alpha virt. eigenvalues --    1.86809   1.87417   1.87955   1.90276   1.90738
 Alpha virt. eigenvalues --    1.91011   1.92018   1.93615   1.94026   1.94844
 Alpha virt. eigenvalues --    1.96430   1.97662   1.98322   1.99046   2.00493
 Alpha virt. eigenvalues --    2.01116   2.02317   2.03742   2.04428   2.06050
 Alpha virt. eigenvalues --    2.07011   2.08008   2.08465   2.09267   2.09458
 Alpha virt. eigenvalues --    2.10227   2.12063   2.12421   2.12985   2.13867
 Alpha virt. eigenvalues --    2.14402   2.14774   2.15677   2.16703   2.16957
 Alpha virt. eigenvalues --    2.17153   2.17599   2.18798   2.19535   2.19824
 Alpha virt. eigenvalues --    2.21873   2.22458   2.23251   2.24473   2.26222
 Alpha virt. eigenvalues --    2.27136   2.27536   2.28616   2.29458   2.31779
 Alpha virt. eigenvalues --    2.33177   2.34501   2.35152   2.36317   2.37664
 Alpha virt. eigenvalues --    2.40151   2.42329   2.42844   2.43573   2.45470
 Alpha virt. eigenvalues --    2.46335   2.48075   2.48594   2.50955   2.51176
 Alpha virt. eigenvalues --    2.51751   2.55135   2.57739   2.61184   2.61704
 Alpha virt. eigenvalues --    2.65141   2.65694   2.67100   2.67352   2.68058
 Alpha virt. eigenvalues --    2.69188   2.70062   2.72113   2.73843   2.76570
 Alpha virt. eigenvalues --    2.77190   2.77472   2.77784   2.79035   2.80379
 Alpha virt. eigenvalues --    2.81165   2.81867   2.82638   2.83589   2.84304
 Alpha virt. eigenvalues --    2.85548   2.87453   2.88178   2.88906   2.89992
 Alpha virt. eigenvalues --    2.90443   2.91589   2.91754   2.92817   2.93445
 Alpha virt. eigenvalues --    2.94773   2.95443   2.96289   2.97562   2.98137
 Alpha virt. eigenvalues --    2.99597   3.00107   3.02028   3.03848   3.09503
 Alpha virt. eigenvalues --    3.11794   3.22768   3.25436   3.25882   3.27885
 Alpha virt. eigenvalues --    3.28287   3.29146   3.31811   3.32179   3.35044
 Alpha virt. eigenvalues --    3.36701   3.40720   3.43936   3.45335   3.46152
 Alpha virt. eigenvalues --    3.47022   3.48268   3.48653   3.49458   3.51837
 Alpha virt. eigenvalues --    3.52989   3.53934   3.55151   3.56309   3.58217
 Alpha virt. eigenvalues --    3.59549   3.61154   3.61780   3.63453   8.65248
          Condensed to atoms (all electrons):
               1          2          3          4          5          6
     1  C    4.730465   0.351407   0.196762   0.363424  -0.023798  -0.024628
     2  C    0.351407   4.908218  -0.041303  -0.042637   0.388717   0.397812
     3  O    0.196762  -0.041303   8.329819  -0.047515   0.000759   0.002046
     4  C    0.363424  -0.042637  -0.047515   4.987236   0.004034  -0.004380
     5  H   -0.023798   0.388717   0.000759   0.004034   0.522951  -0.021943
     6  H   -0.024628   0.397812   0.002046  -0.004380  -0.021943   0.507160
     7  H   -0.027632   0.004689  -0.000559   0.376155  -0.000149   0.000097
     8  H   -0.028701  -0.008579  -0.002444   0.379870   0.000047   0.002106
     9  H   -0.022195  -0.002880   0.003201   0.368261  -0.000034  -0.000069
    10  H    0.396062  -0.041212  -0.033878  -0.046262  -0.003081   0.003277
    11  Br  -0.030329   0.099107   0.001786  -0.012249  -0.020399  -0.027521
    12  C   -0.030088  -0.022484   0.249156  -0.000437   0.000601  -0.000105
    13  O    0.001752   0.000512  -0.084189  -0.000005  -0.000097  -0.000054
    14  O   -0.018124   0.063679  -0.096412  -0.005382  -0.021388  -0.019528
    15  N   -0.000001   0.000000   0.000204   0.000000   0.000000  -0.000000
    16  C   -0.000000   0.000000   0.000119   0.000000  -0.000000  -0.000000
    17  C   -0.000000   0.000000   0.000002   0.000000   0.000000   0.000000
    18  H    0.000004  -0.000002  -0.000451   0.000001   0.000000   0.000000
    19  H    0.000000  -0.000000  -0.000002  -0.000000   0.000000   0.000000
    20  H   -0.000000   0.000000   0.000000   0.000000   0.000000   0.000000
    21  H    0.000000  -0.000000  -0.000001  -0.000000  -0.000000   0.000000
    22  H   -0.000000   0.000000   0.000000   0.000000  -0.000000  -0.000000
    23  C    0.000000  -0.000000  -0.000003  -0.000000  -0.000000   0.000000
    24  C   -0.000000   0.000000   0.000000   0.000000   0.000000  -0.000000
    25  H   -0.000000   0.000000  -0.000000  -0.000000  -0.000000  -0.000000
    26  H    0.000000   0.000000   0.000000  -0.000000   0.000000   0.000000
    27  H   -0.000000   0.000000   0.000000   0.000000  -0.000000  -0.000000
    28  H    0.000000   0.000000   0.000000   0.000000   0.000000   0.000000
    29  H    0.000000  -0.000000  -0.000000  -0.000000   0.000000   0.000000
    30  C   -0.000006   0.000000   0.000169   0.000002  -0.000000  -0.000000
    31  C    0.000234  -0.000018  -0.011318  -0.000031   0.000000   0.000000
    32  H   -0.000000   0.000000   0.000016   0.000000   0.000000  -0.000000
    33  H    0.000000  -0.000000  -0.000003  -0.000000   0.000000   0.000000
    34  H    0.000003   0.000000   0.000106  -0.000010  -0.000000  -0.000000
    35  H   -0.000873   0.000169   0.027246  -0.000192  -0.000005  -0.000002
    36  H   -0.000005   0.000000   0.000055   0.000008  -0.000000  -0.000000
    37  C    0.000096  -0.000031  -0.012703  -0.000021  -0.000010   0.000000
    38  C    0.000007  -0.000004   0.000271   0.000000   0.000004  -0.000000
    39  H    0.000006  -0.000000   0.000041  -0.000000   0.000000  -0.000000
    40  H   -0.000214   0.000121   0.028014   0.000166   0.000047  -0.000003
    41  H    0.000003   0.000000   0.000126   0.000000   0.000018  -0.000000
    42  H    0.000000  -0.000000  -0.000003  -0.000000   0.000000   0.000000
    43  H    0.000000  -0.000004  -0.000012  -0.000000   0.000003   0.000000
               7          8          9         10         11         12
     1  C   -0.027632  -0.028701  -0.022195   0.396062  -0.030329  -0.030088
     2  C    0.004689  -0.008579  -0.002880  -0.041212   0.099107  -0.022484
     3  O   -0.000559  -0.002444   0.003201  -0.033878   0.001786   0.249156
     4  C    0.376155   0.379870   0.368261  -0.046262  -0.012249  -0.000437
     5  H   -0.000149   0.000047  -0.000034  -0.003081  -0.020399   0.000601
     6  H    0.000097   0.002106  -0.000069   0.003277  -0.027521  -0.000105
     7  H    0.617612  -0.031363  -0.023894  -0.004237   0.000088  -0.000351
     8  H   -0.031363   0.589438  -0.022975   0.005060   0.000182   0.003183
     9  H   -0.023894  -0.022975   0.539313  -0.001593   0.014637  -0.000014
    10  H   -0.004237   0.005060  -0.001593   0.582209   0.004824   0.002584
    11  Br   0.000088   0.000182   0.014637   0.004824  35.567862   0.000527
    12  C   -0.000351   0.003183  -0.000014   0.002584   0.000527   4.093615
    13  O   -0.000008  -0.000189   0.000001  -0.000105   0.000003   0.567872
    14  O    0.000022   0.004277   0.000081   0.001531   0.003140   0.449718
    15  N    0.000000  -0.000000  -0.000000  -0.000001   0.000000  -0.000027
    16  C    0.000000   0.000000   0.000000   0.000000   0.000000  -0.000548
    17  C    0.000000   0.000000  -0.000000   0.000000  -0.000000   0.000023
    18  H   -0.000000  -0.000003  -0.000000  -0.000003  -0.000000  -0.000715
    19  H    0.000000   0.000000   0.000000  -0.000000  -0.000000   0.000021
    20  H   -0.000000  -0.000000  -0.000000  -0.000000  -0.000000   0.000005
    21  H    0.000000  -0.000000   0.000000  -0.000000  -0.000000   0.000008
    22  H    0.000000   0.000000  -0.000000   0.000000  -0.000000  -0.000001
    23  C   -0.000000   0.000000   0.000000   0.000000   0.000000  -0.000004
    24  C    0.000000  -0.000000  -0.000000  -0.000000   0.000000   0.000000
    25  H    0.000000  -0.000000   0.000000   0.000000   0.000000   0.000000
    26  H    0.000000   0.000000  -0.000000  -0.000000  -0.000000   0.000000
    27  H    0.000000   0.000000  -0.000000   0.000000  -0.000000  -0.000000
    28  H    0.000000   0.000000  -0.000000  -0.000000  -0.000000  -0.000000
    29  H    0.000000   0.000000   0.000000   0.000000  -0.000000   0.000000
    30  C    0.000003  -0.000000  -0.000000   0.000000   0.000000  -0.000028
    31  C   -0.000085   0.000010  -0.000001   0.000021   0.000000  -0.000379
    32  H    0.000000   0.000000  -0.000000   0.000000  -0.000000   0.000004
    33  H    0.000000   0.000000   0.000000   0.000000   0.000000  -0.000001
    34  H    0.000065  -0.000001   0.000000  -0.000002  -0.000000   0.000014
    35  H    0.001041  -0.000048   0.000011  -0.000059  -0.000001   0.000168
    36  H   -0.000006   0.000000  -0.000000   0.000000   0.000000   0.000093
    37  C   -0.000001   0.000000   0.000000   0.000143   0.000000  -0.001360
    38  C   -0.000000  -0.000000  -0.000000  -0.000002  -0.000000   0.000416
    39  H    0.000000   0.000000   0.000000  -0.000003  -0.000000   0.000089
    40  H   -0.000009  -0.000002  -0.000002  -0.000490  -0.000000  -0.001163
    41  H   -0.000000  -0.000000  -0.000000  -0.000001  -0.000000   0.000091
    42  H   -0.000000   0.000000   0.000000   0.000000  -0.000000   0.000003
    43  H    0.000000   0.000000   0.000000   0.000004  -0.000000   0.000553
              13         14         15         16         17         18
     1  C    0.001752  -0.018124  -0.000001  -0.000000  -0.000000   0.000004
     2  C    0.000512   0.063679   0.000000   0.000000   0.000000  -0.000002
     3  O   -0.084189  -0.096412   0.000204   0.000119   0.000002  -0.000451
     4  C   -0.000005  -0.005382   0.000000   0.000000   0.000000   0.000001
     5  H   -0.000097  -0.021388   0.000000  -0.000000   0.000000   0.000000
     6  H   -0.000054  -0.019528  -0.000000  -0.000000   0.000000   0.000000
     7  H   -0.000008   0.000022   0.000000   0.000000   0.000000  -0.000000
     8  H   -0.000189   0.004277  -0.000000   0.000000   0.000000  -0.000003
     9  H    0.000001   0.000081  -0.000000   0.000000  -0.000000  -0.000000
    10  H   -0.000105   0.001531  -0.000001   0.000000   0.000000  -0.000003
    11  Br   0.000003   0.003140   0.000000   0.000000  -0.000000  -0.000000
    12  C    0.567872   0.449718  -0.000027  -0.000548   0.000023  -0.000715
    13  O    8.068785  -0.063937  -0.000707  -0.032692   0.001252   0.060619
    14  O   -0.063937   8.210276  -0.000000  -0.000026   0.000000   0.000235
    15  N   -0.000707  -0.000000   6.883378   0.221150  -0.034943  -0.026935
    16  C   -0.032692  -0.000026   0.221150   5.009899   0.371442   0.342693
    17  C    0.001252   0.000000  -0.034943   0.371442   4.914095  -0.025381
    18  H    0.060619   0.000235  -0.026935   0.342693  -0.025381   0.453843
    19  H    0.000440   0.000000  -0.042078   0.388882  -0.040605  -0.019498
    20  H    0.000157   0.000000   0.003220  -0.024935   0.388134  -0.003585
    21  H   -0.000121   0.000000  -0.002106  -0.031084   0.392346  -0.002930
    22  H   -0.000004  -0.000000  -0.003743  -0.033840   0.385025   0.003327
    23  C   -0.000019  -0.000000   0.250030  -0.041565  -0.003180   0.002485
    24  C    0.000000   0.000000  -0.038464   0.003866   0.000398  -0.000114
    25  H   -0.000001  -0.000000  -0.034371  -0.008120   0.004048  -0.000002
    26  H    0.000000   0.000000  -0.038834  -0.000260  -0.003508   0.000125
    27  H   -0.000000  -0.000000   0.003294  -0.000068   0.000009   0.000002
    28  H   -0.000000   0.000000  -0.003061  -0.000017  -0.000019   0.000004
    29  H    0.000000  -0.000000  -0.003797  -0.000119   0.000002  -0.000002
    30  C   -0.000072   0.000000   0.245922  -0.038235   0.003308  -0.004815
    31  C   -0.000012  -0.000011  -0.037954  -0.002142   0.000366   0.001430
    32  H   -0.000000   0.000000  -0.037035   0.003978  -0.000149  -0.000153
    33  H   -0.000001  -0.000000  -0.041169  -0.004967  -0.000101   0.000022
    34  H    0.000010   0.000000   0.003526   0.000095  -0.000008   0.000147
    35  H    0.000546   0.000090  -0.002404  -0.002327  -0.000004   0.000850
    36  H   -0.000045   0.000000  -0.003482   0.002849   0.000083  -0.001408
    37  C    0.000835   0.000003   0.226659  -0.034528  -0.002703   0.000057
    38  C   -0.008107   0.000009  -0.036621  -0.000950  -0.003755  -0.001753
    39  H    0.000201   0.000000  -0.040491   0.004338  -0.000161   0.000284
    40  H    0.005175  -0.000093  -0.028517  -0.004869  -0.000118   0.001037
    41  H   -0.000098  -0.000000   0.003409  -0.000119   0.000266   0.000002
    42  H    0.000209  -0.000000  -0.004577  -0.000465  -0.001167   0.000029
    43  H    0.017725  -0.000189  -0.002455   0.003352  -0.004179  -0.001057
              19         20         21         22         23         24
     1  C    0.000000  -0.000000   0.000000  -0.000000   0.000000  -0.000000
     2  C   -0.000000   0.000000  -0.000000   0.000000  -0.000000   0.000000
     3  O   -0.000002   0.000000  -0.000001   0.000000  -0.000003   0.000000
     4  C   -0.000000   0.000000  -0.000000   0.000000  -0.000000   0.000000
     5  H    0.000000   0.000000  -0.000000  -0.000000  -0.000000   0.000000
     6  H    0.000000   0.000000   0.000000  -0.000000   0.000000  -0.000000
     7  H    0.000000  -0.000000   0.000000   0.000000  -0.000000   0.000000
     8  H    0.000000  -0.000000  -0.000000   0.000000   0.000000  -0.000000
     9  H    0.000000  -0.000000   0.000000  -0.000000   0.000000  -0.000000
    10  H   -0.000000  -0.000000  -0.000000   0.000000   0.000000  -0.000000
    11  Br  -0.000000  -0.000000  -0.000000  -0.000000   0.000000   0.000000
    12  C    0.000021   0.000005   0.000008  -0.000001  -0.000004   0.000000
    13  O    0.000440   0.000157  -0.000121  -0.000004  -0.000019   0.000000
    14  O    0.000000   0.000000   0.000000  -0.000000  -0.000000   0.000000
    15  N   -0.042078   0.003220  -0.002106  -0.003743   0.250030  -0.038464
    16  C    0.388882  -0.024935  -0.031084  -0.033840  -0.041565   0.003866
    17  C   -0.040605   0.388134   0.392346   0.385025  -0.003180   0.000398
    18  H   -0.019498  -0.003585  -0.002930   0.003327   0.002485  -0.000114
    19  H    0.592823  -0.002152   0.004427  -0.005497  -0.004260  -0.000137
    20  H   -0.002152   0.535240  -0.020579  -0.027059   0.000150  -0.000007
    21  H    0.004427  -0.020579   0.550907  -0.031216  -0.002719  -0.000027
    22  H   -0.005497  -0.027059  -0.031216   0.603746   0.002264   0.000105
    23  C   -0.004260   0.000150  -0.002719   0.002264   4.869414   0.366042
    24  C   -0.000137  -0.000007  -0.000027   0.000105   0.366042   4.926338
    25  H    0.000003   0.000082   0.000607  -0.001082   0.401578  -0.036055
    26  H    0.003166  -0.000022   0.000247   0.000601   0.398258  -0.036598
    27  H    0.000000  -0.000000   0.000000   0.000016  -0.025827   0.386877
    28  H    0.000001   0.000000   0.000003   0.000002  -0.031546   0.393304
    29  H   -0.000008   0.000000  -0.000001  -0.000005  -0.031801   0.391829
    30  C   -0.001048  -0.000060  -0.000006  -0.000183  -0.040081  -0.004239
    31  C   -0.005790   0.000005  -0.000019   0.000011   0.003675   0.000238
    32  H    0.000441   0.000003   0.000006  -0.000004  -0.006634   0.002281
    33  H    0.002791  -0.000001   0.000002  -0.000017  -0.000674  -0.002943
    34  H    0.000017  -0.000000   0.000000   0.000000  -0.000067   0.000000
    35  H    0.000142  -0.000000   0.000002  -0.000001  -0.000011  -0.000016
    36  H    0.001382   0.000014   0.000002  -0.000005  -0.000109   0.000003
    37  C    0.003747  -0.000008  -0.000247   0.000082  -0.036962  -0.004904
    38  C   -0.000045   0.000035   0.003472  -0.000029  -0.003215  -0.000950
    39  H   -0.000220   0.000004  -0.000032   0.000011  -0.008306   0.003032
    40  H    0.000110  -0.000001   0.000046  -0.000007   0.003716   0.000067
    41  H    0.000002  -0.000005   0.000088  -0.000007   0.000004   0.000015
    42  H   -0.000009   0.000020   0.000269  -0.000050   0.000425   0.000043
    43  H    0.000004   0.000267   0.001296   0.000106  -0.000211   0.000024
              25         26         27         28         29         30
     1  C   -0.000000   0.000000  -0.000000   0.000000   0.000000  -0.000006
     2  C    0.000000   0.000000   0.000000   0.000000  -0.000000   0.000000
     3  O   -0.000000   0.000000   0.000000   0.000000  -0.000000   0.000169
     4  C   -0.000000  -0.000000   0.000000   0.000000  -0.000000   0.000002
     5  H   -0.000000   0.000000  -0.000000   0.000000   0.000000  -0.000000
     6  H   -0.000000   0.000000  -0.000000   0.000000   0.000000  -0.000000
     7  H    0.000000   0.000000   0.000000   0.000000   0.000000   0.000003
     8  H   -0.000000   0.000000   0.000000   0.000000   0.000000  -0.000000
     9  H    0.000000  -0.000000  -0.000000  -0.000000   0.000000  -0.000000
    10  H    0.000000  -0.000000   0.000000  -0.000000   0.000000   0.000000
    11  Br   0.000000  -0.000000  -0.000000  -0.000000  -0.000000   0.000000
    12  C    0.000000   0.000000  -0.000000  -0.000000   0.000000  -0.000028
    13  O   -0.000001   0.000000  -0.000000  -0.000000   0.000000  -0.000072
    14  O   -0.000000   0.000000  -0.000000   0.000000  -0.000000   0.000000
    15  N   -0.034371  -0.038834   0.003294  -0.003061  -0.003797   0.245922
    16  C   -0.008120  -0.000260  -0.000068  -0.000017  -0.000119  -0.038235
    17  C    0.004048  -0.003508   0.000009  -0.000019   0.000002   0.003308
    18  H   -0.000002   0.000125   0.000002   0.000004  -0.000002  -0.004815
    19  H    0.000003   0.003166   0.000000   0.000001  -0.000008  -0.001048
    20  H    0.000082  -0.000022  -0.000000   0.000000   0.000000  -0.000060
    21  H    0.000607   0.000247   0.000000   0.000003  -0.000001  -0.000006
    22  H   -0.001082   0.000601   0.000016   0.000002  -0.000005  -0.000183
    23  C    0.401578   0.398258  -0.025827  -0.031546  -0.031801  -0.040081
    24  C   -0.036055  -0.036598   0.386877   0.393304   0.391829  -0.004239
    25  H    0.548296  -0.030102  -0.002858  -0.004103   0.004135   0.004200
    26  H   -0.030102   0.568125  -0.002843   0.004203  -0.004172  -0.006676
    27  H   -0.002858  -0.002843   0.547223  -0.023674  -0.024548   0.000073
    28  H   -0.004103   0.004203  -0.023674   0.550127  -0.028161  -0.000942
    29  H    0.004135  -0.004172  -0.024548  -0.028161   0.560129   0.002940
    30  C    0.004200  -0.006676   0.000073  -0.000942   0.002940   4.889275
    31  C   -0.000145  -0.000081  -0.000004  -0.000017   0.000036   0.364974
    32  H   -0.000130  -0.000066   0.000077   0.000150  -0.000222   0.398852
    33  H    0.000223   0.004536  -0.000038   0.000114   0.000991   0.392912
    34  H    0.000003  -0.000003  -0.000000  -0.000000   0.000010  -0.026858
    35  H    0.000005   0.000004   0.000000   0.000000   0.000007  -0.027119
    36  H   -0.000003  -0.000018   0.000000  -0.000000  -0.000003  -0.033971
    37  C   -0.004433   0.004194   0.000132   0.000100  -0.000403  -0.039733
    38  C    0.002665   0.000051  -0.000006   0.000386   0.000022   0.003644
    39  H   -0.000462   0.000020   0.000025   0.001189  -0.000071  -0.006098
    40  H    0.000024  -0.000142  -0.000004   0.000012  -0.000018  -0.003199
    41  H   -0.000096  -0.000000  -0.000000  -0.000008   0.000002  -0.000074
    42  H    0.002479  -0.000013  -0.000022   0.000486  -0.000011  -0.000045
    43  H   -0.000155  -0.000009   0.000001  -0.000016  -0.000000  -0.000020
              31         32         33         34         35         36
     1  C    0.000234  -0.000000   0.000000   0.000003  -0.000873  -0.000005
     2  C   -0.000018   0.000000  -0.000000   0.000000   0.000169   0.000000
     3  O   -0.011318   0.000016  -0.000003   0.000106   0.027246   0.000055
     4  C   -0.000031   0.000000  -0.000000  -0.000010  -0.000192   0.000008
     5  H    0.000000   0.000000   0.000000  -0.000000  -0.000005  -0.000000
     6  H    0.000000  -0.000000   0.000000  -0.000000  -0.000002  -0.000000
     7  H   -0.000085   0.000000   0.000000   0.000065   0.001041  -0.000006
     8  H    0.000010   0.000000   0.000000  -0.000001  -0.000048   0.000000
     9  H   -0.000001  -0.000000   0.000000   0.000000   0.000011  -0.000000
    10  H    0.000021   0.000000   0.000000  -0.000002  -0.000059   0.000000
    11  Br   0.000000  -0.000000   0.000000  -0.000000  -0.000001   0.000000
    12  C   -0.000379   0.000004  -0.000001   0.000014   0.000168   0.000093
    13  O   -0.000012  -0.000000  -0.000001   0.000010   0.000546  -0.000045
    14  O   -0.000011   0.000000  -0.000000   0.000000   0.000090   0.000000
    15  N   -0.037954  -0.037035  -0.041169   0.003526  -0.002404  -0.003482
    16  C   -0.002142   0.003978  -0.004967   0.000095  -0.002327   0.002849
    17  C    0.000366  -0.000149  -0.000101  -0.000008  -0.000004   0.000083
    18  H    0.001430  -0.000153   0.000022   0.000147   0.000850  -0.001408
    19  H   -0.005790   0.000441   0.002791   0.000017   0.000142   0.001382
    20  H    0.000005   0.000003  -0.000001  -0.000000  -0.000000   0.000014
    21  H   -0.000019   0.000006   0.000002   0.000000   0.000002   0.000002
    22  H    0.000011  -0.000004  -0.000017   0.000000  -0.000001  -0.000005
    23  C    0.003675  -0.006634  -0.000674  -0.000067  -0.000011  -0.000109
    24  C    0.000238   0.002281  -0.002943   0.000000  -0.000016   0.000003
    25  H   -0.000145  -0.000130   0.000223   0.000003   0.000005  -0.000003
    26  H   -0.000081  -0.000066   0.004536  -0.000003   0.000004  -0.000018
    27  H   -0.000004   0.000077  -0.000038  -0.000000   0.000000   0.000000
    28  H   -0.000017   0.000150   0.000114  -0.000000   0.000000  -0.000000
    29  H    0.000036  -0.000222   0.000991   0.000010   0.000007  -0.000003
    30  C    0.364974   0.398852   0.392912  -0.026858  -0.027119  -0.033971
    31  C    4.963264  -0.032742  -0.034667   0.379126   0.375215   0.393356
    32  H   -0.032742   0.563550  -0.032714  -0.004609  -0.002385   0.004223
    33  H   -0.034667  -0.032714   0.584082  -0.001514   0.003482  -0.005760
    34  H    0.379126  -0.004609  -0.001514   0.567694  -0.018760  -0.026997
    35  H    0.375215  -0.002385   0.003482  -0.018760   0.482662  -0.022369
    36  H    0.393356   0.004223  -0.005760  -0.026997  -0.022369   0.560845
    37  C   -0.004499  -0.004017   0.004157   0.000083  -0.001478   0.000098
    38  C    0.000097   0.000171  -0.000190  -0.000001  -0.000091   0.000000
    39  H   -0.000399   0.004071   0.000120  -0.000019   0.000209  -0.000009
    40  H    0.001097  -0.001087   0.000121  -0.000070   0.002118  -0.000091
    41  H    0.000001  -0.000011   0.000003  -0.000000   0.000012  -0.000000
    42  H   -0.000003   0.000000   0.000001   0.000000  -0.000005   0.000000
    43  H   -0.000010   0.000004   0.000003  -0.000000   0.000020  -0.000005
              37         38         39         40         41         42
     1  C    0.000096   0.000007   0.000006  -0.000214   0.000003   0.000000
     2  C   -0.000031  -0.000004  -0.000000   0.000121   0.000000  -0.000000
     3  O   -0.012703   0.000271   0.000041   0.028014   0.000126  -0.000003
     4  C   -0.000021   0.000000  -0.000000   0.000166   0.000000  -0.000000
     5  H   -0.000010   0.000004   0.000000   0.000047   0.000018   0.000000
     6  H    0.000000  -0.000000  -0.000000  -0.000003  -0.000000   0.000000
     7  H   -0.000001  -0.000000   0.000000  -0.000009  -0.000000  -0.000000
     8  H    0.000000  -0.000000   0.000000  -0.000002  -0.000000   0.000000
     9  H    0.000000  -0.000000   0.000000  -0.000002  -0.000000   0.000000
    10  H    0.000143  -0.000002  -0.000003  -0.000490  -0.000001   0.000000
    11  Br   0.000000  -0.000000  -0.000000  -0.000000  -0.000000  -0.000000
    12  C   -0.001360   0.000416   0.000089  -0.001163   0.000091   0.000003
    13  O    0.000835  -0.008107   0.000201   0.005175  -0.000098   0.000209
    14  O    0.000003   0.000009   0.000000  -0.000093  -0.000000  -0.000000
    15  N    0.226659  -0.036621  -0.040491  -0.028517   0.003409  -0.004577
    16  C   -0.034528  -0.000950   0.004338  -0.004869  -0.000119  -0.000465
    17  C   -0.002703  -0.003755  -0.000161  -0.000118   0.000266  -0.001167
    18  H    0.000057  -0.001753   0.000284   0.001037   0.000002   0.000029
    19  H    0.003747  -0.000045  -0.000220   0.000110   0.000002  -0.000009
    20  H   -0.000008   0.000035   0.000004  -0.000001  -0.000005   0.000020
    21  H   -0.000247   0.003472  -0.000032   0.000046   0.000088   0.000269
    22  H    0.000082  -0.000029   0.000011  -0.000007  -0.000007  -0.000050
    23  C   -0.036962  -0.003215  -0.008306   0.003716   0.000004   0.000425
    24  C   -0.004904  -0.000950   0.003032   0.000067   0.000015   0.000043
    25  H   -0.004433   0.002665  -0.000462   0.000024  -0.000096   0.002479
    26  H    0.004194   0.000051   0.000020  -0.000142  -0.000000  -0.000013
    27  H    0.000132  -0.000006   0.000025  -0.000004  -0.000000  -0.000022
    28  H    0.000100   0.000386   0.001189   0.000012  -0.000008   0.000486
    29  H   -0.000403   0.000022  -0.000071  -0.000018   0.000002  -0.000011
    30  C   -0.039733   0.003644  -0.006098  -0.003199  -0.000074  -0.000045
    31  C   -0.004499   0.000097  -0.000399   0.001097   0.000001  -0.000003
    32  H   -0.004017   0.000171   0.004071  -0.001087  -0.000011   0.000000
    33  H    0.004157  -0.000190   0.000120   0.000121   0.000003   0.000001
    34  H    0.000083  -0.000001  -0.000019  -0.000070  -0.000000   0.000000
    35  H   -0.001478  -0.000091   0.000209   0.002118   0.000012  -0.000005
    36  H    0.000098   0.000000  -0.000009  -0.000091  -0.000000   0.000000
    37  C    4.935870   0.371618   0.392143   0.375734  -0.023750  -0.036956
    38  C    0.371618   4.949501  -0.038933  -0.028774   0.384551   0.378156
    39  H    0.392143  -0.038933   0.596229  -0.026371  -0.004652  -0.002500
    40  H    0.375734  -0.028774  -0.026371   0.485668  -0.002207   0.004252
    41  H   -0.023750   0.384551  -0.004652  -0.002207   0.544730  -0.026557
    42  H   -0.036956   0.378156  -0.002500   0.004252  -0.026557   0.612391
    43  H   -0.027851   0.383568   0.004206  -0.006169  -0.019947  -0.026302
              43
     1  C    0.000000
     2  C   -0.000004
     3  O   -0.000012
     4  C   -0.000000
     5  H    0.000003
     6  H    0.000000
     7  H    0.000000
     8  H    0.000000
     9  H    0.000000
    10  H    0.000004
    11  Br  -0.000000
    12  C    0.000553
    13  O    0.017725
    14  O   -0.000189
    15  N   -0.002455
    16  C    0.003352
    17  C   -0.004179
    18  H   -0.001057
    19  H    0.000004
    20  H    0.000267
    21  H    0.001296
    22  H    0.000106
    23  C   -0.000211
    24  C    0.000024
    25  H   -0.000155
    26  H   -0.000009
    27  H    0.000001
    28  H   -0.000016
    29  H   -0.000000
    30  C   -0.000020
    31  C   -0.000010
    32  H    0.000004
    33  H    0.000003
    34  H   -0.000000
    35  H    0.000020
    36  H   -0.000005
    37  C   -0.027851
    38  C    0.383568
    39  H    0.004206
    40  H   -0.006169
    41  H   -0.019947
    42  H   -0.026302
    43  H    0.497564
 Mulliken charges:
               1
     1  C    0.166371
     2  C   -0.055277
     3  O   -0.509103
     4  C   -0.320036
     5  H    0.173723
     6  H    0.185735
     7  H    0.088523
     8  H    0.110131
     9  H    0.148153
    10  H    0.135211
    11  Br  -0.601658
    12  C    0.688960
    13  O   -0.535628
    14  O   -0.507973
    15  N   -0.377021
    16  C   -0.090790
    17  C   -0.340819
    18  H    0.221611
    19  H    0.122951
    20  H    0.151078
    21  H    0.137358
    22  H    0.107454
    23  C   -0.060849
    24  C   -0.350009
    25  H    0.153770
    26  H    0.139817
    27  H    0.142160
    28  H    0.141482
    29  H    0.133240
    30  C   -0.072767
    31  C   -0.352832
    32  H    0.144129
    33  H    0.131201
    34  H    0.128023
    35  H    0.184153
    36  H    0.131272
    37  C   -0.079153
    38  C   -0.355221
    39  H    0.122511
    40  H    0.196097
    41  H    0.144207
    42  H    0.099919
    43  H    0.179895
 Sum of Mulliken charges =  -0.00000
 Mulliken charges with hydrogens summed into heavy atoms:
               1
     1  C    0.301583
     2  C    0.304182
     3  O   -0.509103
     4  C    0.026771
    11  Br  -0.601658
    12  C    0.688960
    13  O   -0.535628
    14  O   -0.507973
    15  N   -0.377021
    16  C    0.253772
    17  C    0.055071
    23  C    0.232739
    24  C    0.066873
    30  C    0.202563
    31  C    0.090615
    37  C    0.239455
    38  C    0.068800
 APT charges:
               1
     1  C   -0.278236
     2  C   -0.753387
     3  O   -0.387942
     4  C   -1.003474
     5  H    0.508794
     6  H    0.536475
     7  H    0.342990
     8  H    0.318653
     9  H    0.435912
    10  H    0.368934
    11  Br  -0.566598
    12  C   -0.305898
    13  O    0.166490
    14  O   -0.294182
    15  N   -0.022329
    16  C   -0.266835
    17  C   -1.468844
    18  H   -0.220964
    19  H    0.602417
    20  H    0.417202
    21  H    0.156861
    22  H    1.041106
    23  C   -1.575383
    24  C   -1.491329
    25  H    0.557365
    26  H    0.856220
    27  H    1.330443
    28  H   -0.021164
    29  H    0.324433
    30  C   -1.102666
    31  C   -0.606625
    32  H    0.335544
    33  H    0.939622
    34  H    0.489439
    35  H   -0.248839
    36  H    0.452413
    37  C    0.122796
    38  C   -1.110169
    39  H    0.455280
    40  H   -0.234909
    41  H    0.142106
    42  H    0.913427
    43  H    0.144850
 Sum of APT charges =  -0.00000
 APT charges with hydrogens summed into heavy atoms:
               1
     1  C    0.090698
     2  C    0.291882
     3  O   -0.387942
     4  C    0.094081
    11  Br  -0.566598
    12  C   -0.305898
    13  O    0.166490
    14  O   -0.294182
    15  N   -0.022329
    16  C    0.114618
    17  C    0.146325
    23  C   -0.161797
    24  C    0.142383
    30  C    0.172500
    31  C    0.086388
    37  C    0.343168
    38  C    0.090214
 Electronic spatial extent (au):  <R**2>=          10586.7587
 Charge=             -0.0000 electrons
 Dipole moment (field-independent basis, Debye):
    X=            -11.3874    Y=            -17.0412    Z=              0.8121  Tot=             20.5118
 Quadrupole moment (field-independent basis, Debye-Ang):
   XX=           -124.8692   YY=            -56.5411   ZZ=           -112.7529
   XY=             30.0834   XZ=              8.9100   YZ=             16.4167
 Traceless Quadrupole moment (field-independent basis, Debye-Ang):
   XX=            -26.8148   YY=             41.5133   ZZ=            -14.6985
   XY=             30.0834   XZ=              8.9100   YZ=             16.4167
 Octapole moment (field-independent basis, Debye-Ang**2):
  XXX=            227.1419  YYY=            262.6499  ZZZ=            243.5680  XYY=            -63.8424
  XXY=             42.5404  XXZ=             94.6797  XZZ=            109.6930  YZZ=            162.8931
  YYZ=             29.6697  XYZ=            -30.2193
 Hexadecapole moment (field-independent basis, Debye-Ang**3):
 XXXX=          -4738.2743 YYYY=          -5154.5641 ZZZZ=          -1423.0729 XXXY=          -1905.7077
 XXXZ=           -322.6256 YYYX=          -1350.7819 YYYZ=           -272.1336 ZZZX=           -425.6290
 ZZZY=           -569.5727 XXYY=          -1468.0211 XXZZ=          -1043.4571 YYZZ=          -1254.5478
 XXYZ=            -55.3471 YYXZ=             38.7636 ZZXY=           -669.5830
 N-N= 1.713664359311D+03 E-N=-1.133268201926D+04  KE= 3.319365558061D+03
  Exact polarizability:   0.000   0.000   0.000   0.000   0.000   0.000
 Approx polarizability: 239.504  15.430 181.306   4.174  -3.525 168.043
   1 Symmetry operations used in ECPInt.
 ECPInt:  NShTT=   11935 NPrTT=   57376 LenC2=   10205 LenP2D=   30990.
 LDataN:  DoStor=T MaxTD1= 6 Len=  172
 Calling FoFJK, ICntrl=    100147 FMM=F ISym2X=0 I1Cent= 0 IOpClX= 0 NMat=1 NMatS=1 NMatT=0.
 -------------------------------------------------------------------
 Center     Atomic                   Forces (Hartrees/Bohr)
 Number     Number              X              Y              Z
 -------------------------------------------------------------------
      1        6          -0.000001306    0.000000954    0.000000069
      2        6          -0.000000165    0.000000325    0.000000884
      3        8          -0.000000089    0.000000063    0.000000322
      4        6          -0.000000695    0.000000056    0.000000631
      5        1          -0.000000057    0.000000220    0.000000387
      6        1          -0.000000376   -0.000000090    0.000000355
      7        1          -0.000000645    0.000000286    0.000000392
      8        1          -0.000000644    0.000000050    0.000000199
      9        1          -0.000000722    0.000000208    0.000000637
     10        1           0.000000252   -0.000000242    0.000000498
     11       35          -0.000000316    0.000000378    0.000000924
     12        6           0.000000226    0.000000317   -0.000000064
     13        8          -0.000000123   -0.000000048   -0.000000140
     14        8          -0.000000322   -0.000000276    0.000000217
     15        7          -0.000000145   -0.000000553   -0.000000231
     16        6          -0.000000127   -0.000000469    0.000000302
     17        6           0.000000127    0.000000106   -0.000000728
     18        1          -0.000000022    0.000000050   -0.000000379
     19        1           0.000000040   -0.000000110   -0.000000809
     20        1           0.000000177   -0.000000328   -0.000000740
     21        1           0.000000355   -0.000000200   -0.000000602
     22        1           0.000000255   -0.000000548   -0.000000695
     23        6           0.000000308    0.000000075   -0.000000750
     24        6          -0.000000165   -0.000000031   -0.000000927
     25        1           0.000000673   -0.000000230    0.000000044
     26        1           0.000000277   -0.000000147   -0.000000388
     27        1           0.000000832    0.000000192    0.000000052
     28        1           0.000000613    0.000000086    0.000000072
     29        1           0.000000635   -0.000000265    0.000000596
     30        6           0.000000597    0.000000275    0.000000108
     31        6          -0.000000318    0.000000123    0.000000119
     32        1          -0.000000152    0.000000089    0.000000101
     33        1          -0.000000301   -0.000000275   -0.000000075
     34        1          -0.000000449   -0.000000021   -0.000000049
     35        1          -0.000000437   -0.000000295   -0.000000030
     36        1          -0.000000560   -0.000000055   -0.000000131
     37        6           0.000000870    0.000000572   -0.000000220
     38        6          -0.000000283    0.000000467   -0.000000033
     39        1           0.000000150    0.000000133    0.000000279
     40        1          -0.000000077   -0.000000324   -0.000000045
     41        1           0.000000647    0.000000086    0.000000137
     42        1           0.000000678   -0.000000001   -0.000000093
     43        1           0.000000785   -0.000000604   -0.000000197
 -------------------------------------------------------------------
 Cartesian Forces:  Max     0.000001306 RMS     0.000000418
 IRC-IRC-IRC-IRC-IRC-IRC-IRC-IRC-IRC-IRC-IRC-IRC-IRC-IRC-IRC-IRC-IRC-IRC
          ******** Start new reaction path calculation ********
 Supplied step size of   0.1000 bohr.
    Integration on MW PES will use step size of   0.3332 sqrt(amu)*bohr.
 Point Number:   0          Path Number:   1
 Calculating another point on the path.
 IRC-IRC-IRC-IRC-IRC-IRC-IRC-IRC-IRC-IRC-IRC-IRC-IRC-IRC-IRC-IRC-IRC-IRC
                          Input orientation:                          
 ---------------------------------------------------------------------
 Center     Atomic      Atomic             Coordinates (Angstroms)
 Number     Number       Type             X           Y           Z
 ---------------------------------------------------------------------
      1          6           0        1.130146    1.358752    0.794032
      2          6           0        1.186139    2.452021   -0.255533
      3          8           0       -0.047669    0.562429    0.525197
      4          6           0        1.071058    1.913313    2.203496
      5          1           0        1.373402    2.204110   -1.287610
      6          1           0        1.217980    3.491572    0.020291
      7          1           0        0.963673    1.105061    2.931160
      8          1           0        0.221708    2.594799    2.306231
      9          1           0        1.995670    2.456647    2.405011
     10          1           0        1.975604    0.687513    0.669667
     11         35           0        3.690914    2.641387   -0.111222
     12          6           0       -1.035080    1.292318   -0.101845
     13          8           0       -2.120607    0.739741   -0.277777
     14          8           0       -0.658855    2.455646   -0.445056
     15          7           0       -2.151112   -2.874712   -0.040563
     16          6           0       -3.355671   -1.955583    0.177494
     17          6           0       -4.422180   -1.937298   -0.906461
     18          1           0       -2.939494   -0.952403    0.307374
     19          1           0       -3.807809   -2.296153    1.111397
     20          1           0       -5.137585   -1.164468   -0.615402
     21          1           0       -4.039448   -1.657621   -1.886094
     22          1           0       -4.973871   -2.875872   -0.991651
     23          6           0       -2.610398   -4.166542   -0.672805
     24          6           0       -1.559842   -5.254175   -0.829855
     25          1           0       -3.021934   -3.907261   -1.646029
     26          1           0       -3.435591   -4.523529   -0.051937
     27          1           0       -2.044926   -6.111179   -1.303122
     28          1           0       -0.735034   -4.954539   -1.478344
     29          1           0       -1.153082   -5.598677    0.121872
     30          6           0       -1.555537   -3.187648    1.324597
     31          6           0       -1.337603   -1.997414    2.246320
     32          1           0       -0.607504   -3.689880    1.131938
     33          1           0       -2.232577   -3.911276    1.786330
     34          1           0       -0.772044   -2.359028    3.108905
     35          1           0       -0.769027   -1.188451    1.784499
     36          1           0       -2.274873   -1.583969    2.619635
     37          6           0       -1.058435   -2.206708   -0.866205
     38          6           0       -1.450706   -1.706230   -2.243147
     39          1           0       -0.257947   -2.944503   -0.931371
     40          1           0       -0.701233   -1.363463   -0.278259
     41          1           0       -0.527460   -1.394008   -2.737974
     42          1           0       -1.914833   -2.465017   -2.878323
     43          1           0       -2.084188   -0.822846   -2.168709
 ---------------------------------------------------------------------
                    Distance matrix (angstroms):
                    1          2          3          4          5
     1  C    0.000000
     2  C    1.516561   0.000000
     3  O    1.446945   2.387965   0.000000
     4  C    1.515789   2.519975   2.427576   0.000000
     5  H    2.259875   1.077827   2.828573   3.516219   0.000000
     6  H    2.270531   1.075992   3.230584   2.697938   1.841825
     7  H    2.158561   3.466814   2.665694   1.092839   4.378790
     8  H    2.154023   2.741011   2.715727   1.093788   3.794038
     9  H    2.133016   2.780980   3.361100   1.091204   3.753190
    10  H    1.086659   2.143067   2.032276   2.161810   2.548263
    11  Br   3.003693   2.516065   4.324823   3.570946   2.635519
    12  C    2.344186   2.510447   1.378731   3.183716   2.835170
    13  O    3.478411   3.723838   2.230085   4.209597   3.920745
    14  O    2.437014   1.854706   2.213416   3.209603   2.214325
    15  N    5.420832   6.289478   4.069213   6.192202   6.306485
    16  C    5.611372   6.343700   4.171830   6.218438   6.466352
    17  C    6.677121   7.151438   5.237807   7.394234   7.133394
    18  H    4.705342   5.378459   3.271822   5.281301   5.577510
    19  H    6.151622   7.025181   4.759599   6.535720   7.269976
    20  H    6.902000   7.293695   5.494578   7.481054   7.361531
    21  H    6.557918   6.845046   5.165002   7.456111   6.676084
    22  H    7.640663   8.177655   6.195983   8.347840   8.135213
    23  C    6.831702   7.641543   5.510531   7.667520   7.538823
    24  C    7.321466   8.200959   6.160821   8.215579   8.027421
    25  H    7.136145   7.751247   5.791253   8.090149   7.536332
    26  H    7.494187   8.370193   6.138246   8.174949   8.361485
    27  H    8.383258   9.212254   7.202002   9.295064   8.990509
    28  H    6.964212   7.748762   5.909618   7.999082   7.465129
    29  H    7.353282   8.392147   6.272467   8.106168   8.321854
    30  C    5.306990   6.466797   4.120168   5.804418   6.668835
    31  C    4.411663   5.694384   3.343500   4.593176   6.122990
    32  H    5.349981   6.547151   4.331707   5.946561   6.672130
    33  H    6.329752   7.506555   5.135983   6.709238   7.736287
    34  H    4.774814   6.188708   3.966759   4.740220   6.689881
    35  H    3.328082   4.608410   2.274155   3.630759   5.053447
    36  H    4.856603   6.044371   3.735524   4.857923   6.551795
    37  C    4.500975   5.207186   3.259719   5.561688   5.054377
    38  C    5.027859   5.309860   3.844353   6.263627   4.917255
    39  H    4.839610   5.627132   3.803206   5.932287   5.412617
    40  H    3.451697   4.256831   2.186721   4.476314   4.248586
    41  H    4.774978   4.887829   3.834857   6.157253   4.320103
    42  H    6.113862   6.377486   4.922975   7.342358   5.928205
    43  H    4.885606   5.007997   3.650140   6.046347   4.679073
                    6          7          8          9         10
     6  H    0.000000
     7  H    3.772700   0.000000
     8  H    2.649958   1.777742   0.000000
     9  H    2.713440   1.780066   1.782072   0.000000
    10  H    2.976311   2.512509   3.064675   2.478237   0.000000
    11  Br   2.618303   4.365115   4.228668   3.039639   2.714719
    12  C    3.150859   3.637197   3.012441   4.101881   3.166265
[...]
    38  C   -0.010518   0.000006  -0.035394  -0.001649  -0.003787  -0.001211
    39  H    0.000456   0.000000  -0.041828   0.004592  -0.000164   0.000224
    40  H    0.013764   0.000154  -0.026349  -0.003995  -0.000143   0.000188
    41  H   -0.000069  -0.000000   0.003459  -0.000109   0.000274   0.000006
    42  H    0.000289  -0.000000  -0.004879  -0.000289  -0.001241  -0.000042
    43  H    0.021633  -0.000076  -0.002277   0.003592  -0.004332  -0.001378
              19         20         21         22         23         24
     1  C    0.000000  -0.000000   0.000000  -0.000000   0.000000  -0.000000
     2  C   -0.000000   0.000000   0.000000  -0.000000  -0.000000   0.000000
     3  O   -0.000001   0.000000  -0.000001   0.000000  -0.000003   0.000000
     4  C    0.000000   0.000000  -0.000000   0.000000  -0.000000   0.000000
     5  H   -0.000000   0.000000  -0.000000   0.000000  -0.000000   0.000000
     6  H   -0.000000   0.000000  -0.000000   0.000000   0.000000  -0.000000
     7  H   -0.000000  -0.000000  -0.000000   0.000000  -0.000000   0.000000
     8  H   -0.000000  -0.000000  -0.000000   0.000000   0.000000  -0.000000
     9  H    0.000000  -0.000000  -0.000000   0.000000   0.000000  -0.000000
    10  H   -0.000000   0.000000  -0.000000   0.000000   0.000000  -0.000000
    11  Br  -0.000000   0.000000   0.000000  -0.000000   0.000000  -0.000000
    12  C    0.000019   0.000005   0.000009  -0.000001  -0.000003   0.000000
    13  O    0.000602   0.000170  -0.000091  -0.000008  -0.000030   0.000000
    14  O    0.000000  -0.000000   0.000000  -0.000000  -0.000000   0.000000
    15  N   -0.043212   0.003242  -0.002233  -0.003629   0.252885  -0.038271
    16  C    0.386212  -0.025135  -0.030763  -0.034237  -0.042292   0.003938
    17  C   -0.041711   0.387934   0.391956   0.382763  -0.003148   0.000401
    18  H   -0.018367  -0.003372  -0.002862   0.003195   0.002465  -0.000114
    19  H    0.605084  -0.002212   0.004527  -0.005546  -0.004827  -0.000136
    20  H   -0.002212   0.539920  -0.020474  -0.027813   0.000133  -0.000007
    21  H    0.004527  -0.020474   0.551810  -0.032096  -0.002544  -0.000027
    22  H   -0.005546  -0.027813  -0.032096   0.614843   0.002209   0.000095
    23  C   -0.004827   0.000133  -0.002544   0.002209   4.864374   0.366340
    24  C   -0.000136  -0.000007  -0.000027   0.000095   0.366340   4.926114
    25  H   -0.000004   0.000069   0.000590  -0.000908   0.401716  -0.036364
    26  H    0.003510  -0.000024   0.000243   0.000561   0.397507  -0.037182
    27  H    0.000000  -0.000000   0.000000   0.000017  -0.026047   0.386368
    28  H    0.000001   0.000000   0.000003   0.000002  -0.031260   0.393017
    29  H   -0.000007   0.000000  -0.000001  -0.000005  -0.031770   0.391428
    30  C   -0.001467  -0.000061  -0.000006  -0.000160  -0.039913  -0.004408
    31  C   -0.005593   0.000005  -0.000019   0.000008   0.003759   0.000221
    32  H    0.000444   0.000003   0.000006  -0.000004  -0.006715   0.002267
    33  H    0.002980  -0.000001   0.000003  -0.000016  -0.000854  -0.002816
    34  H    0.000021  -0.000000   0.000000   0.000000  -0.000071   0.000000
    35  H    0.000119  -0.000000   0.000002  -0.000001  -0.000011  -0.000015
    36  H    0.001111   0.000014   0.000002  -0.000004  -0.000103   0.000003
    37  C    0.003860  -0.000007  -0.000124   0.000022  -0.036966  -0.004836
    38  C   -0.000092   0.000050   0.003717  -0.000019  -0.003174  -0.000953
    39  H   -0.000217   0.000004  -0.000022   0.000008  -0.008755   0.002766
    40  H    0.000165  -0.000003   0.000044  -0.000010   0.003453   0.000060
    41  H    0.000002  -0.000005   0.000079  -0.000007   0.000002   0.000018
    42  H   -0.000007   0.000021   0.000208  -0.000056   0.000325   0.000017
    43  H    0.000007   0.000249   0.001457   0.000114  -0.000225   0.000024
              25         26         27         28         29         30
     1  C   -0.000000   0.000000   0.000000   0.000000   0.000000  -0.000010
     2  C    0.000000  -0.000000  -0.000000  -0.000000  -0.000000   0.000000
     3  O   -0.000000   0.000000   0.000000   0.000000  -0.000000   0.000214
     4  C   -0.000000  -0.000000   0.000000   0.000000   0.000000   0.000002
     5  H   -0.000000  -0.000000   0.000000  -0.000000  -0.000000  -0.000000
     6  H    0.000000  -0.000000   0.000000  -0.000000  -0.000000   0.000000
     7  H    0.000000   0.000000   0.000000   0.000000   0.000000   0.000004
     8  H    0.000000   0.000000   0.000000   0.000000  -0.000000  -0.000000
     9  H    0.000000  -0.000000   0.000000  -0.000000   0.000000  -0.000000
    10  H    0.000000  -0.000000  -0.000000  -0.000000  -0.000000  -0.000003
    11  Br   0.000000  -0.000000  -0.000000  -0.000000   0.000000  -0.000000
    12  C   -0.000000   0.000000   0.000000  -0.000000   0.000000  -0.000054
    13  O   -0.000003   0.000001  -0.000000  -0.000000   0.000000  -0.000328
    14  O   -0.000000   0.000000  -0.000000   0.000000   0.000000  -0.000000
    15  N   -0.034445  -0.039032   0.003291  -0.003022  -0.003766   0.248609
    16  C   -0.008090  -0.000231  -0.000069  -0.000014  -0.000112  -0.038975
    17  C    0.003855  -0.003410   0.000009  -0.000019   0.000001   0.003354
    18  H    0.000001   0.000120   0.000002   0.000003  -0.000002  -0.005085
    19  H   -0.000004   0.003510   0.000000   0.000001  -0.000007  -0.001467
    20  H    0.000069  -0.000024  -0.000000   0.000000   0.000000  -0.000061
    21  H    0.000590   0.000243   0.000000   0.000003  -0.000001  -0.000006
    22  H   -0.000908   0.000561   0.000017   0.000002  -0.000005  -0.000160
    23  C    0.401716   0.397507  -0.026047  -0.031260  -0.031770  -0.039913
    24  C   -0.036364  -0.037182   0.386368   0.393017   0.391428  -0.004408
    25  H    0.551259  -0.030524  -0.002848  -0.004197   0.004187   0.004249
    26  H   -0.030524   0.573469  -0.002858   0.004270  -0.004189  -0.006661
    27  H   -0.002848  -0.002858   0.553802  -0.024155  -0.025092   0.000076
    28  H   -0.004197   0.004270  -0.024155   0.553237  -0.028516  -0.000900
    29  H    0.004187  -0.004189  -0.025092  -0.028516   0.564440   0.002871
    30  C    0.004249  -0.006661   0.000076  -0.000900   0.002871   4.886301
    31  C   -0.000147  -0.000082  -0.000003  -0.000017   0.000023   0.364608
    32  H   -0.000131  -0.000084   0.000078   0.000139  -0.000142   0.397960
    33  H    0.000210   0.004602  -0.000039   0.000112   0.001016   0.391913
    34  H    0.000003  -0.000003  -0.000000  -0.000000   0.000010  -0.027659
    35  H    0.000004   0.000004   0.000000   0.000000   0.000007  -0.025743
    36  H   -0.000003  -0.000021   0.000000  -0.000000  -0.000002  -0.033820
    37  C   -0.004505   0.004211   0.000134   0.000180  -0.000408  -0.039715
    38  C    0.002685   0.000053  -0.000010   0.000448   0.000022   0.003698
    39  H   -0.000472   0.000014   0.000046   0.001004  -0.000048  -0.006675
    40  H    0.000018  -0.000129  -0.000003   0.000014  -0.000016  -0.003449
    41  H   -0.000112   0.000000  -0.000000  -0.000007   0.000002  -0.000077
    42  H    0.002542  -0.000012  -0.000019   0.000474  -0.000010  -0.000046
    43  H   -0.000144  -0.000008   0.000001  -0.000016  -0.000000  -0.000004
              31         32         33         34         35         36
     1  C    0.000219  -0.000001   0.000000   0.000021  -0.000801  -0.000010
     2  C   -0.000024  -0.000000  -0.000000   0.000000   0.000247  -0.000000
     3  O   -0.013092   0.000021  -0.000004   0.000086   0.032593   0.000092
     4  C    0.000020   0.000000  -0.000000  -0.000016  -0.000449   0.000007
     5  H    0.000000   0.000000   0.000000  -0.000000  -0.000006   0.000000
     6  H    0.000000   0.000000   0.000000  -0.000000  -0.000002   0.000000
     7  H   -0.000074   0.000000  -0.000000   0.000065   0.001101   0.000003
     8  H    0.000016   0.000000   0.000000  -0.000001  -0.000091   0.000001
     9  H   -0.000001  -0.000000   0.000000  -0.000000   0.000008  -0.000000
    10  H    0.000245   0.000001   0.000000  -0.000010  -0.000633   0.000000
    11  Br   0.000000  -0.000000   0.000000  -0.000000  -0.000004   0.000000
    12  C   -0.000175   0.000003  -0.000001   0.000021  -0.000214   0.000106
    13  O    0.000406  -0.000002  -0.000001   0.000036   0.000906  -0.000148
    14  O   -0.000006   0.000000  -0.000000  -0.000000   0.000017  -0.000000
    15  N   -0.038177  -0.037248  -0.041508   0.003639  -0.002474  -0.003457
    16  C   -0.002125   0.004063  -0.005315   0.000086  -0.002363   0.003235
    17  C    0.000370  -0.000158  -0.000097  -0.000008  -0.000001   0.000070
    18  H    0.001656  -0.000156   0.000048   0.000187   0.000798  -0.001634
    19  H   -0.005593   0.000444   0.002980   0.000021   0.000119   0.001111
    20  H    0.000005   0.000003  -0.000001  -0.000000  -0.000000   0.000014
    21  H   -0.000019   0.000006   0.000003   0.000000   0.000002   0.000002
    22  H    0.000008  -0.000004  -0.000016   0.000000  -0.000001  -0.000004
    23  C    0.003759  -0.006715  -0.000854  -0.000071  -0.000011  -0.000103
    24  C    0.000221   0.002267  -0.002816   0.000000  -0.000015   0.000003
    25  H   -0.000147  -0.000131   0.000210   0.000003   0.000004  -0.000003
    26  H   -0.000082  -0.000084   0.004602  -0.000003   0.000004  -0.000021
    27  H   -0.000003   0.000078  -0.000039  -0.000000   0.000000   0.000000
    28  H   -0.000017   0.000139   0.000112  -0.000000   0.000000  -0.000000
    29  H    0.000023  -0.000142   0.001016   0.000010   0.000007  -0.000002
    30  C    0.364608   0.397960   0.391913  -0.027659  -0.025743  -0.033820
    31  C    4.973552  -0.032944  -0.034761   0.376108   0.368009   0.393099
    32  H   -0.032944   0.572501  -0.033809  -0.004840  -0.002305   0.004287
    33  H   -0.034761  -0.033809   0.592366  -0.001392   0.003386  -0.005844
    34  H    0.376108  -0.004840  -0.001392   0.582489  -0.018722  -0.028033
    35  H    0.368009  -0.002305   0.003386  -0.018722   0.477509  -0.021271
    36  H    0.393099   0.004287  -0.005844  -0.028033  -0.021271   0.562467
    37  C   -0.004391  -0.004481   0.004249   0.000077  -0.001094   0.000084
    38  C    0.000116   0.000164  -0.000195  -0.000001  -0.000101   0.000001
    39  H   -0.000435   0.004223   0.000132  -0.000014   0.000183  -0.000014
    40  H    0.000636  -0.000930   0.000096  -0.000050   0.001971  -0.000061
    41  H    0.000001  -0.000012   0.000003  -0.000000   0.000012  -0.000000
    42  H   -0.000003   0.000002   0.000001   0.000000  -0.000006   0.000000
    43  H   -0.000013   0.000006   0.000003  -0.000001   0.000011  -0.000005
              37         38         39         40         41         42
     1  C    0.000017   0.000012   0.000017  -0.000119   0.000001   0.000000
     2  C    0.000001  -0.000006  -0.000001  -0.000044  -0.000003  -0.000000
     3  O   -0.012326   0.000259  -0.000007   0.028813   0.000159  -0.000003
     4  C   -0.000024   0.000000  -0.000000   0.000215   0.000000   0.000000
     5  H   -0.000035   0.000007  -0.000001   0.000172   0.000054  -0.000000
     6  H    0.000002  -0.000000  -0.000000  -0.000012  -0.000000  -0.000000
     7  H   -0.000000  -0.000000   0.000000  -0.000013  -0.000000  -0.000000
     8  H   -0.000000   0.000000  -0.000000   0.000000   0.000000   0.000000
     9  H    0.000000  -0.000000   0.000000  -0.000003  -0.000000   0.000000
    10  H    0.000196  -0.000002  -0.000009  -0.000642  -0.000001   0.000000
    11  Br   0.000000   0.000000  -0.000000  -0.000000  -0.000000  -0.000000
    12  C   -0.002309   0.000431   0.000101  -0.000243   0.000045   0.000000
    13  O   -0.002851  -0.010518   0.000456   0.013764  -0.000069   0.000289
    14  O   -0.000022   0.000006   0.000000   0.000154  -0.000000  -0.000000
    15  N    0.225162  -0.035394  -0.041828  -0.026349   0.003459  -0.004879
    16  C   -0.034634  -0.001649   0.004592  -0.003995  -0.000109  -0.000289
    17  C   -0.002710  -0.003787  -0.000164  -0.000143   0.000274  -0.001241
    18  H    0.000300  -0.001211   0.000224   0.000188   0.000006  -0.000042
    19  H    0.003860  -0.000092  -0.000217   0.000165   0.000002  -0.000007
    20  H   -0.000007   0.000050   0.000004  -0.000003  -0.000005   0.000021
    21  H   -0.000124   0.003717  -0.000022   0.000044   0.000079   0.000208
    22  H    0.000022  -0.000019   0.000008  -0.000010  -0.000007  -0.000056
    23  C   -0.036966  -0.003174  -0.008755   0.003453   0.000002   0.000325
    24  C   -0.004836  -0.000953   0.002766   0.000060   0.000018   0.000017
    25  H   -0.004505   0.002685  -0.000472   0.000018  -0.000112   0.002542
    26  H    0.004211   0.000053   0.000014  -0.000129   0.000000  -0.000012
    27  H    0.000134  -0.000010   0.000046  -0.000003  -0.000000  -0.000019
    28  H    0.000180   0.000448   0.001004   0.000014  -0.000007   0.000474
    29  H   -0.000408   0.000022  -0.000048  -0.000016   0.000002  -0.000010
    30  C   -0.039715   0.003698  -0.006675  -0.003449  -0.000077  -0.000046
    31  C   -0.004391   0.000116  -0.000435   0.000636   0.000001  -0.000003
    32  H   -0.004481   0.000164   0.004223  -0.000930  -0.000012   0.000002
    33  H    0.004249  -0.000195   0.000132   0.000096   0.000003   0.000001
    34  H    0.000077  -0.000001  -0.000014  -0.000050  -0.000000   0.000000
    35  H   -0.001094  -0.000101   0.000183   0.001971   0.000012  -0.000006
    36  H    0.000084   0.000001  -0.000014  -0.000061  -0.000000   0.000000
    37  C    4.953338   0.373566   0.385789   0.365298  -0.023708  -0.037931
    38  C    0.373566   4.954334  -0.040969  -0.027284   0.382500   0.373948
    39  H    0.385789  -0.040969   0.618185  -0.024662  -0.004915  -0.002044
    40  H    0.365298  -0.027284  -0.024662   0.465648  -0.001984   0.004317
    41  H   -0.023708   0.382500  -0.004915  -0.001984   0.559224  -0.028097
    42  H   -0.037931   0.373948  -0.002044   0.004317  -0.028097   0.628166
    43  H   -0.027690   0.380055   0.004347  -0.006504  -0.019438  -0.026021
              43
     1  C   -0.000004
     2  C   -0.000005
     3  O    0.000024
     4  C   -0.000000
     5  H   -0.000003
     6  H   -0.000000
     7  H    0.000000
     8  H    0.000000
     9  H    0.000000
    10  H    0.000002
    11  Br  -0.000000
    12  C    0.000195
    13  O    0.021633
    14  O   -0.000076
    15  N   -0.002277
    16  C    0.003592
    17  C   -0.004332
    18  H   -0.001378
    19  H    0.000007
    20  H    0.000249
    21  H    0.001457
    22  H    0.000114
    23  C   -0.000225
    24  C    0.000024
    25  H   -0.000144
    26  H   -0.000008
    27  H    0.000001
    28  H   -0.000016
    29  H   -0.000000
    30  C   -0.000004
    31  C   -0.000013
    32  H    0.000006
    33  H    0.000003
    34  H   -0.000001
    35  H    0.000011
    36  H   -0.000005
    37  C   -0.027690
    38  C    0.380055
    39  H    0.004347
    40  H   -0.006504
    41  H   -0.019438
    42  H   -0.026021
    43  H    0.491966
 Mulliken charges:
               1
     1  C    0.203552
     2  C   -0.189659
     3  O   -0.539011
     4  C   -0.329425
     5  H    0.133765
     6  H    0.187710
     7  H    0.083257
     8  H    0.145699
     9  H    0.105445
    10  H    0.083737
    11  Br  -0.219578
    12  C    0.637362
    13  O   -0.580882
    14  O   -0.519789
    15  N   -0.377345
    16  C   -0.090036
    17  C   -0.339530
    18  H    0.232959
    19  H    0.114735
    20  H    0.147295
    21  H    0.136605
    22  H    0.100683
    23  C   -0.056457
    24  C   -0.347951
    25  H    0.151509
    26  H    0.135885
    27  H    0.137320
    28  H    0.139218
    29  H    0.130080
    30  C   -0.068638
    31  C   -0.350996
    32  H    0.137793
    33  H    0.125533
    34  H    0.117975
    35  H    0.189419
    36  H    0.129848
    37  C   -0.075722
    38  C   -0.350707
    39  H    0.109162
    40  H    0.211623
    41  H    0.132702
    42  H    0.090397
    43  H    0.184459
 Sum of Mulliken charges =  -0.00000
 Mulliken charges with hydrogens summed into heavy atoms:
               1
     1  C    0.287289
     2  C    0.131816
     3  O   -0.539011
     4  C    0.004974
    11  Br  -0.219578
    12  C    0.637362
    13  O   -0.580882
    14  O   -0.519789
    15  N   -0.377345
    16  C    0.257658
    17  C    0.045053
    23  C    0.230937
    24  C    0.058667
    30  C    0.194688
    31  C    0.086246
    37  C    0.245063
    38  C    0.056851
 APT charges:
               1
     1  C   -0.215446
     2  C   -0.700749
     3  O   -0.420382
     4  C   -1.135734
     5  H    0.232498
     6  H    0.563151
     7  H    0.263035
     8  H    0.383930
     9  H    0.595635
    10  H    0.289409
    11  Br  -0.126457
    12  C   -0.348416
    13  O   -0.352593
    14  O    0.135546
    15  N   -0.023894
    16  C   -0.472973
    17  C   -1.361017
    18  H   -0.029393
    19  H    0.587830
    20  H    0.528621
    21  H    0.140734
    22  H    0.819839
    23  C   -1.296919
    24  C   -1.362846
    25  H    0.474990
    26  H    0.757130
    27  H    1.082079
    28  H    0.039244
    29  H    0.362841
    30  C   -0.970050
    31  C   -0.825361
    32  H    0.313391
    33  H    0.794435
    34  H    0.524986
    35  H   -0.098874
    36  H    0.482599
    37  C   -0.069755
    38  C   -1.083089
    39  H    0.377338
    40  H   -0.017273
    41  H    0.233865
    42  H    0.690768
    43  H    0.237329
 Sum of APT charges =  -0.00000
 APT charges with hydrogens summed into heavy atoms:
               1
     1  C    0.073964
     2  C    0.094900
     3  O   -0.420382
     4  C    0.106866
    11  Br  -0.126457
    12  C   -0.348416
    13  O   -0.352593
    14  O    0.135546
    15  N   -0.023894
    16  C    0.085463
    17  C    0.128177
    23  C   -0.064799
    24  C    0.121318
    30  C    0.137776
    31  C    0.083350
    37  C    0.290310
    38  C    0.078872
 Electronic spatial extent (au):  <R**2>=           8500.4379
 Charge=             -0.0000 electrons
 Dipole moment (field-independent basis, Debye):
    X=             -4.5345    Y=            -14.7192    Z=              0.2333  Tot=             15.4036
 Quadrupole moment (field-independent basis, Debye-Ang):
   XX=           -118.9250   YY=           -100.8660   ZZ=           -112.5532
   XY=             19.3732   XZ=             -0.4969   YZ=              2.2618
 Traceless Quadrupole moment (field-independent basis, Debye-Ang):
   XX=             -8.1436   YY=              9.9154   ZZ=             -1.7718
   XY=             19.3732   XZ=             -0.4969   YZ=              2.2618
 Octapole moment (field-independent basis, Debye-Ang**2):
  XXX=             85.5754  YYY=            -17.9391  ZZZ=             -7.1739  XYY=            -12.9210
  XXY=            -36.8853  XXZ=              0.8300  XZZ=             47.8893  YZZ=             37.5698
  YYZ=             -6.8182  XYZ=             -5.2023
 Hexadecapole moment (field-independent basis, Debye-Ang**3):
 XXXX=          -4054.0150 YYYY=          -4483.3680 ZZZZ=          -1055.8471 XXXY=          -1522.6560
 XXXZ=           -162.1336 YYYX=          -1345.9659 YYYZ=           -159.0862 ZZZX=           -181.5546
 ZZZY=           -226.5484 XXYY=          -1440.6742 XXZZ=           -856.6966 YYZZ=           -960.3691
 XXYZ=            -47.9918 YYXZ=            -36.0295 ZZXY=           -515.6167
 N-N= 1.724930677159D+03 E-N=-1.135480917936D+04  KE= 3.319423605568D+03
  Exact polarizability:   0.000   0.000   0.000   0.000   0.000   0.000
 Approx polarizability: 198.885  12.766 186.820   4.618   0.282 167.505

 This type of calculation cannot be archived.


 UNLESS WE CHANGE DIRECTIONS, WE WILL WIND UP WHERE WE ARE HEADED.
     -- CONFUCIUS
 Job cpu time:       3 days  3 hours 42 minutes 31.8 seconds.
 Elapsed time:       0 days  1 hours 15 minutes 38.8 seconds.
 File lengths (MBytes):  RWF=    813 Int=      0 D2E=      0 Chk=     18 Scr=      2
 Normal termination of Gaussian 16 at Mon Mar 13 13:35:22 2023.
