 Entering Gaussian System, Link 0=g16
 Input=IRC_re.com
 Output=IRC_re.log
 Initial command:
 /opt/ohpc/pub/apps/gaussian/avx2/g16/l1.exe "/scratch/g16-tmp/Gau-2362213.inp" -scrdir="/scratch/g16-tmp/"
 Entering Link 1 = /opt/ohpc/pub/apps/gaussian/avx2/g16/l1.exe PID=   2362214.
  
 Copyright (c) 1988-2017, Gaussian, Inc.  All Rights Reserved.
  
 This is part of the Gaussian(R) 16 program.  It is based on
 the Gaussian(R) 09 system (copyright 2009, Gaussian, Inc.),
 the Gaussian(R) 03 system (copyright 2003, Gaussian, Inc.),
 the Gaussian(R) 98 system (copyright 1998, Gaussian, Inc.),
 the Gaussian(R) 94 system (copyright 1995, Gaussian, Inc.),
 the Gaussian 92(TM) system (copyright 1992, Gaussian, Inc.),
 the Gaussian 90(TM) system (copyright 1990, Gaussian, Inc.),
 the Gaussian 88(TM) system (copyright 1988, Gaussian, Inc.),
 the Gaussian 86(TM) system (copyright 1986, Carnegie Mellon
 University), and the Gaussian 82(TM) system (copyright 1983,
 Carnegie Mellon University). Gaussian is a federally registered
 trademark of Gaussian, Inc.
  
 This software contains proprietary and confidential information,
 including trade secrets, belonging to Gaussian, Inc.
  
 This software is provided under written license and may be
 used, copied, transmitted, or stored only in accord with that
 written license.
  
 The following legend is applicable only to US Government
 contracts under FAR:
  
                    RESTRICTED RIGHTS LEGEND
  
 Use, reproduction and disclosure by the US Government is
 subject to restrictions as set forth in subparagraphs (a)
 and (c) of the Commercial Computer Software - Restricted
 Rights clause in FAR 52.227-19.
  
 Gaussian, Inc.
 340 Quinnipiac St., Bldg. 40, Wallingford CT 06492
  
  
 ---------------------------------------------------------------
 Warning -- This program may not be used in any manner that
 competes with the business of Gaussian, Inc. or will provide
 assistance to any competitor of Gaussian, Inc.  The licensee
 of this program is prohibited from giving any competitor of
 Gaussian, Inc. access to this program.  By using this program,
 the user acknowledges that Gaussian, Inc. is engaged in the
 business of creating and licensing software in the field of
 computational chemistry and represents and warrants to the
 licensee that it is not a competitor of Gaussian, Inc. and that
 it will not use this program in any manner prohibited above.
 ---------------------------------------------------------------
  

 Cite this work as:
 Gaussian 16, Revision B.01,
 M. J. Frisch, G. W. Trucks, H. B. Schlegel, G. E. Scuseria, 
 M. A. Robb, J. R. Cheeseman, G. Scalmani, V. Barone, 
 G. A. Petersson, H. Nakatsuji, X. Li, M. Caricato, A. V. Marenich, 
 J. Bloino, B. G. Janesko, R. Gomperts, B. Mennucci, H. P. Hratchian, 
 J. V. Ortiz, A. F. Izmaylov, J. L. Sonnenberg, D. Williams-Young, 
 F. Ding, F. Lipparini, F. Egidi, J. Goings, B. Peng, A. Petrone, 
 T. Henderson, D. Ranasinghe, V. G. Zakrzewski, J. Gao, N. Rega, 
 G. Zheng, W. Liang, M. Hada, M. Ehara, K. Toyota, R. Fukuda, 
 J. Hasegawa, M. Ishida, T. Nakajima, Y. Honda, O. Kitao, H. Nakai, 
 T. Vreven, K. Throssell, J. A. Montgomery, Jr., J. E. Peralta, 
 F. Ogliaro, M. J. Bearpark, J. J. Heyd, E. N. Brothers, K. N. Kudin, 
 V. N. Staroverov, T. A. Keith, R. Kobayashi, J. Normand, 
 K. Raghavachari, A. P. Rendell, J. C. Burant, S. S. Iyengar, 
 J. Tomasi, M. Cossi, J. M. Millam, M. Klene, C. Adamo, R. Cammi, 
 J. W. Ochterski, R. L. Martin, K. Morokuma, O. Farkas, 
 J. B. Foresman, and D. J. Fox, Gaussian, Inc., Wallingford CT, 2016.
 
 ******************************************
 Gaussian 16:  ES64L-G16RevB.01 20-Dec-2017
                14-Mar-2023 
 ******************************************
 %nprocshared=64
 Will use up to   64 processors via shared memory.
 %mem=64GB
 %chk=IRC_re.chk
 ----------------------------------------------------------------------
 # irc=(calcfc,maxpoints=80,recalc=3, maxcycle=1000) cam-b3lyp/gen nosy
 mm pseudo=read scf=xqc
 ----------------------------------------------------------------------
 1/6=1000,10=4,18=10,26=3,38=1,42=80,44=3,71=3,172=1/1,23;
 2/12=2,15=1,17=6,18=5,29=1,40=1/2;
 3/5=7,11=2,16=1,17=8,25=1,30=1,71=2,74=-40,140=1/1,2,3;
 4//1;
 5/5=2,8=3,13=1,38=5/2,8;
 8/6=4,10=90,11=11/1;
 11/6=1,8=1,9=11,15=111,16=1,31=1/1,2,10;
 10/6=1,13=1,31=1/2;
 6/7=2,8=2,9=2,10=2,28=1/1;
 7/10=1,18=20,25=1,30=1/1,2,3,16;
 1/6=1000,10=4,18=10,26=3,42=80,44=3,71=3/23(2);
 2/15=1,29=1/2;
 99/5=20/99;
 2/15=1,29=1/2;
 3/5=7,6=1,11=2,16=1,17=8,25=1,30=1,71=2,74=-40,82=7,140=1/1,2,3;
 4/5=5,16=3,69=1/1;
 5/5=2,8=3,13=1,38=5/2,8;
 8/6=4,10=90,11=11/1;
 11/6=1,8=1,9=11,15=111,16=1,31=1/1,2,10;
 10/6=1,13=1,31=1/2;
 7/10=1,18=20,25=1,30=1/1,2,3,16;
 1/6=1000,18=10,26=3,42=80,44=3,71=3/23(-8);
 2/15=1,29=1/2;
 6/7=2,8=2,9=2,10=2,19=2,28=1/1;
 99/5=20,9=1/99;
 ------
 IRC_re
 ------
 Symbolic Z-matrix:
 Charge =  0 Multiplicity = 1
 C                     0.32471  -0.12305   0.65747 
 C                     1.43766  -0.21828   1.57353 
 O                     0.74849  -1.47185   0.57754 
 C                     0.46914   0.71946  -0.58349 
 H                     1.28198  -0.53569   2.59048 
 H                     2.44208  -0.09472   1.20484 
 H                    -0.30724   0.48111  -1.31886 
 H                     1.44968   0.55352  -1.04095 
 H                     0.39831   1.77405  -0.30773 
 H                    -0.65423   0.00246   1.13271 
 Br                    1.78115   2.18275   2.54374 
 N                     1.56256  -4.37364  -0.94399 
 C                     0.10332  -4.06338  -0.6209 
 C                    -0.73813  -3.48165  -1.74166 
 H                     0.12534  -3.32437   0.18377 
 H                    -0.31298  -5.01076  -0.26762 
 H                    -1.76921  -3.46054  -1.38014 
 H                    -0.45687  -2.44825  -1.94386 
 H                    -0.7336   -4.06006  -2.66806 
 C                     1.62002  -5.41334  -2.03541 
 C                     2.99914  -5.98343  -2.33042 
 H                     1.20556  -4.95127  -2.92839 
 H                     0.93669  -6.20976  -1.73086 
 H                     2.92415  -6.59648  -3.23156 
 H                     3.74115  -5.20678  -2.52468 
 H                     3.37008  -6.62644  -1.53141 
 C                     2.18042  -4.97046   0.31138 
 C                     2.03606  -4.14821   1.58175 
 H                     3.23386  -5.12265   0.08004 
 H                     1.71935  -5.95459   0.43315 
 H                     2.71537  -4.57268   2.32499 
 H                     2.28272  -3.0961    1.44035 
 H                     1.02696  -4.18968   1.99111 
 C                     2.33915  -3.10259  -1.30803 
 C                     2.29877  -2.67316  -2.76616 
 H                     3.37299  -3.29393  -1.01549 
 H                     1.9199   -2.3164   -0.6628 
 H                     2.83572  -1.72292  -2.82342 
 H                     2.7979   -3.36754  -3.44564 
 H                     1.29076  -2.48769  -3.13405 
 
 IRC-IRC-IRC-IRC-IRC-IRC-IRC-IRC-IRC-IRC-IRC-IRC-IRC-IRC-IRC-IRC-IRC-IRC
 ------------------------------------------------------------------------
 INPUT DATA FOR L123
 ------------------------------------------------------------------------
 GENERAL PARAMETERS:
 Follow reaction path in both directions.
 Maximum points per path      =  80
 Step size                    =   0.100 bohr
 Integration scheme           = HPC                                 
    Redo corrector integration= Yes                                 
    DWI Weight Power          =  2
    DWI will use Hessian update vectors when possible.
    Max correction cycles     =1000
 Initial Hessian              = CalcFC
 Hessian evaluation           = Analytic every   3 predictor steps
                              = Update at all corrector steps
 Hessian updating method      = Bofill                              
 ------------------------------------------------------------------------
 IRC-IRC-IRC-IRC-IRC-IRC-IRC-IRC-IRC-IRC-IRC-IRC-IRC-IRC-IRC-IRC-IRC-IRC
                          Input orientation:                          
 ---------------------------------------------------------------------
 Center     Atomic      Atomic             Coordinates (Angstroms)
 Number     Number       Type             X           Y           Z
 ---------------------------------------------------------------------
      1          6           0        0.324708   -0.123054    0.657468
      2          6           0        1.437661   -0.218281    1.573529
      3          8           0        0.748492   -1.471852    0.577544
      4          6           0        0.469136    0.719462   -0.583486
      5          1           0        1.281981   -0.535685    2.590478
      6          1           0        2.442084   -0.094723    1.204843
      7          1           0       -0.307240    0.481112   -1.318862
      8          1           0        1.449675    0.553520   -1.040947
      9          1           0        0.398307    1.774047   -0.307733
     10          1           0       -0.654233    0.002456    1.132707
     11         35           0        1.781154    2.182753    2.543744
     12          7           0        1.562558   -4.373645   -0.943988
     13          6           0        0.103315   -4.063384   -0.620899
     14          6           0       -0.738129   -3.481652   -1.741663
     15          1           0        0.125337   -3.324365    0.183765
     16          1           0       -0.312975   -5.010763   -0.267622
     17          1           0       -1.769206   -3.460540   -1.380135
     18          1           0       -0.456872   -2.448254   -1.943864
     19          1           0       -0.733596   -4.060055   -2.668064
     20          6           0        1.620023   -5.413338   -2.035415
     21          6           0        2.999136   -5.983434   -2.330415
     22          1           0        1.205562   -4.951274   -2.928385
     23          1           0        0.936694   -6.209764   -1.730861
     24          1           0        2.924151   -6.596477   -3.231557
     25          1           0        3.741150   -5.206782   -2.524678
     26          1           0        3.370077   -6.626443   -1.531408
     27          6           0        2.180422   -4.970455    0.311375
     28          6           0        2.036059   -4.148210    1.581751
     29          1           0        3.233861   -5.122654    0.080035
     30          1           0        1.719349   -5.954591    0.433153
     31          1           0        2.715368   -4.572677    2.324994
     32          1           0        2.282720   -3.096097    1.440348
     33          1           0        1.026957   -4.189679    1.991105
     34          6           0        2.339147   -3.102591   -1.308027
     35          6           0        2.298772   -2.673160   -2.766162
     36          1           0        3.372993   -3.293928   -1.015488
     37          1           0        1.919903   -2.316401   -0.662799
     38          1           0        2.835719   -1.722924   -2.823422
     39          1           0        2.797903   -3.367538   -3.445641
     40          1           0        1.290756   -2.487694   -3.134047
 ---------------------------------------------------------------------
                    Distance matrix (angstroms):
                    1          2          3          4          5
     1  C    0.000000
     2  C    1.444611   0.000000
     3  O    1.416064   1.743095   0.000000
     4  C    1.506871   2.543642   2.495574   0.000000
     5  H    2.196170   1.076646   2.283183   3.508584   0.000000
     6  H    2.187168   1.077062   2.271176   2.784518   1.860180
     7  H    2.161077   3.449602   2.919759   1.095604   4.340788
     8  H    2.146606   2.726042   2.685759   1.094652   3.794962
     9  H    2.129794   2.930661   3.382633   1.092340   3.809904
    10  H    1.095413   2.149202   2.109367   2.172872   2.482663
    11  Br   3.316024   2.612330   4.276502   3.693532   2.764283
    12  N    4.707914   4.860097   3.376117   5.221616   5.225046
    13  C    4.148426   4.623939   2.927210   4.796962   4.913945
    14  C    4.262116   5.135577   3.409994   4.521971   5.614892
    15  H    3.242304   3.647108   1.993787   4.130304   3.860936
    16  H    5.015190   5.424246   3.790107   5.791973   5.544271
    17  H    4.435664   5.433265   3.758482   4.808039   5.799163
    18  H    3.575521   4.575378   2.960365   3.569670   5.219367
    19  H    5.261098   6.120841   4.407874   5.351244   6.643493
    20  C    6.075900   6.328219   4.808579   6.406549   6.730873
    21  C    7.100990   7.135543   5.820309   7.374380   7.539349
    22  H    6.078318   6.536232   4.960527   6.180463   7.068318
    23  H    6.567091   6.860600   5.273705   7.039123   7.140614
    24  H    7.986665   8.122801   6.745704   8.158575   8.563061
    25  H    6.902349   6.854670   5.703463   7.042348   7.350611
    26  H    7.507298   7.378306   6.155501   7.954642   7.645091
    27  C    5.201995   4.972714   3.789656   6.008696   5.066428
    28  C    4.470448   3.975235   3.135148   5.553173   3.825768
    29  H    5.813140   5.432286   4.444427   6.497252   5.581437
    30  H    6.000180   5.855344   4.588939   6.865826   5.848922
    31  H    5.319309   4.599783   4.066608   6.442946   4.292131
    32  H    3.644955   3.002280   2.395090   4.684387   2.979931
    33  H    4.336955   4.014355   3.076082   5.571297   3.711598
    34  C    4.098631   4.175558   2.957173   4.316247   4.785911
    35  C    4.703319   5.059729   3.876452   4.429619   5.856300
    36  H    4.705876   4.461852   3.570114   4.972556   4.998322
    37  H    3.016376   3.104163   1.903659   3.365632   3.763204
    38  H    4.580541   4.853009   3.998265   4.072257   5.756210
    39  H    5.786093   6.079486   4.896910   5.506238   6.837554
    40  H    4.571691   5.228106   3.886115   4.179267   6.048190
                    6          7          8          9         10
     6  H    0.000000
     7  H    3.776169   0.000000
     8  H    2.539423   1.780233   0.000000
     9  H    3.155505   1.786578   1.769933   0.000000
    10  H    3.098681   2.521846   3.074878   2.514208   0.000000
    11  Br   2.723303   4.709214   3.951492   3.195345   3.560313
    12  N    4.868287   5.215874   4.929412   6.289230   5.327015
    13  C    4.955143   4.616075   4.827518   5.853264   4.492223
    14  C    5.501540   4.008482   4.643286   5.565071   4.517527
    15  H    4.103718   4.114203   4.276889   5.129317   3.546260
    16  H    5.824599   5.591586   5.887802   6.822109   5.216296
    17  H    5.978779   4.204488   5.156445   5.766200   4.421525
    18  H    4.884405   2.999034   3.668900   4.608262   3.938302
    19  H    6.388130   4.756503   5.357169   6.394460   5.563826
    20  C    6.281936   6.242782   6.051560   7.492395   6.673834
    21  C    6.890956   7.331147   6.840711   8.428171   7.821202
    22  H    6.496049   5.864295   5.824497   7.262880   6.670138
    23  H    6.948258   6.817986   6.817708   8.127508   7.023016
    24  H    7.885863   8.012026   7.622028   9.219236   8.683176
    25  H    6.459880   7.084885   6.374433   8.051175   7.735116
    26  H    7.142241   8.005322   7.448514   8.994278   8.199688
    27  C    4.963821   6.210130   5.733853   7.003395   5.782707
    28  C    4.091170   5.944344   5.415594   6.428492   4.966623
    29  H    5.212695   6.774843   6.054657   7.466941   6.518600
    30  H    5.954486   6.971004   6.678413   7.875653   6.450556
    31  H    4.624013   6.924928   6.261744   7.251271   5.805825
    32  H    3.014814   5.207452   4.491157   5.506823   4.280347
    33  H    4.403346   5.878116   5.645349   6.422296   4.597526
    34  C    3.920763   4.454931   3.772219   5.343131   4.955686
    35  C    4.736851   4.339978   3.756168   5.425246   5.574974
    36  H    4.003920   5.280822   4.301471   5.918956   5.630225
    37  H    2.949002   3.635473   2.932671   4.378709   3.902194
    38  H    4.362672   4.123065   3.206327   4.949593   5.550465
    39  H    5.697800   5.383048   4.793221   6.483859   6.650968
    40  H    5.087026   3.829138   3.695309   5.191045   5.309333
                   11         12         13         14         15
    11  Br   0.000000
    12  N    7.429563   0.000000
    13  C    7.200301   1.526446   0.000000
    14  C    7.536377   2.593279   1.517416   0.000000
    15  H    6.216074   2.106756   1.092757   2.116031   0.000000
    16  H    8.002239   2.093087   1.093448   2.166041   1.799946
    17  H    7.736190   3.482045   2.108600   1.092826   2.460411
    18  H    6.825951   2.963947   2.161641   1.089909   2.373466
    19  H    8.512318   2.888442   2.211632   1.092149   3.067888
    20  C    8.871035   1.508468   2.474598   3.062447   3.394504
    21  C    9.587884   2.564636   3.872314   4.535713   4.653007
    22  H    9.009431   2.097363   2.706989   2.710357   3.674125
    23  H    9.456199   2.093372   2.556068   3.201210   3.556630
    24  H   10.570498   3.468125   4.603174   5.033310   5.495862
    25  H    9.172552   2.817616   4.262109   4.863448   4.894207
    26  H    9.835318   2.947420   4.250886   5.177960   4.936991
    27  C    7.504084   1.521142   2.450773   3.866450   2.636147
    28  C    6.408705   2.579609   2.931614   4.380125   2.506780
    29  H    7.845329   2.098307   3.378414   4.667781   3.592704
    30  H    8.406829   2.102496   2.701713   4.109069   3.085637
    31  H    6.823228   3.472006   3.969948   5.445611   3.584886
    32  H    5.416208   2.799254   3.151855   4.404472   2.507072
    33  H    6.440661   2.989228   2.773379   4.189318   2.197309
    34  C    6.563715   1.533360   2.528678   3.130712   2.678728
    35  C    7.214078   2.598842   3.369704   3.305454   3.721553
    36  H    6.722806   2.109165   3.382094   4.178982   3.462139
    37  H    5.526622   2.106897   2.520654   3.096271   2.225563
    38  H    6.721078   3.489919   4.218399   4.127435   4.353614
    39  H    8.228745   2.965906   3.965372   3.926842   4.507445
    40  H    7.368234   2.902937   3.195110   2.653876   3.614706
                   16         17         18         19         20
    16  H    0.000000
    17  H    2.400309   0.000000
    18  H    3.065444   1.750638   0.000000
    19  H    2.615892   1.758029   1.788559   0.000000
    20  C    2.650215   3.966067   3.621270   2.787677   0.000000
    21  C    4.021353   5.477692   4.958922   4.212681   1.521180
    22  H    3.064173   3.669961   3.161974   2.149970   1.087509
    23  H    2.267233   3.873388   4.017008   2.879143   1.092697
    24  H    4.666732   5.940494   5.504291   4.486655   2.128691
    25  H    4.644207   5.892653   5.056700   4.621568   2.186601
    26  H    4.215738   6.038051   5.680926   4.971767   2.188227
    27  C    2.560057   4.554186   4.289863   4.265839   2.453083
    28  C    3.111614   4.870903   4.640530   5.073430   3.854546
    29  H    3.565590   5.470411   4.986992   4.941850   2.676583
    30  H    2.347816   4.655998   4.762410   4.384490   2.529160
    31  H    4.010541   5.922519   5.727079   6.090054   4.573801
    32  H    3.649759   4.950358   4.402040   5.187140   4.229622
    33  H    2.751626   4.440206   4.551735   4.982389   4.249933
    34  C    3.428894   4.124547   2.941117   3.494022   2.527011
    35  C    4.304453   4.369151   2.884498   3.335919   2.916036
    36  H    4.134391   5.157804   4.030498   4.492442   2.933437
    37  H    3.521576   3.928505   2.703252   3.755326   3.400738
    38  H    5.220754   5.129105   3.484377   4.269230   3.964597
    39  H    4.741050   5.013327   3.700537   3.681805   2.749807
    40  H    4.141766   3.658689   2.114780   2.605275   3.142420
                   21         22         23         24         25
    21  C    0.000000
    22  H    2.154026   0.000000
    23  H    2.159712   1.757882   0.000000
    24  H    1.092475   2.398365   2.520242   0.000000
    25  H    1.091564   2.580207   3.082384   1.760232   0.000000
    26  H    1.090628   3.072924   2.476844   1.757912   1.771925
    27  C    2.945416   3.383307   2.693227   3.968557   3.245754
    28  C    4.427257   4.655745   4.053641   5.472719   4.570631
    29  H    2.570274   3.632349   3.120597   3.637955   2.654986
    30  H    3.045652   3.545499   2.315301   3.910712   3.660008
    31  H    4.872740   5.479128   4.721620   5.917315   4.997363
    32  H    4.802980   4.867009   4.643627   5.872886   4.722652
    33  H    5.077655   4.981296   4.235791   6.055429   5.365970
    34  C    3.127318   2.707066   3.435140   4.031059   2.805971
    35  C    3.411495   2.532040   3.928699   4.000013   2.925408
    36  H    3.016993   3.332226   3.866447   4.002406   2.464184
    37  H    4.170470   3.547636   4.155205   5.091766   3.890737
    38  H    4.292052   3.618103   4.993167   4.891412   3.611969
    39  H    2.850813   2.304631   3.805630   3.238490   2.262898
    40  H    3.972982   2.473617   3.993507   4.422622   3.710687
                   26         27         28         29         30
    26  H    0.000000
    27  C    2.748349   0.000000
    28  C    4.196785   1.520126   0.000000
    29  H    2.208322   1.089227   2.153932   0.000000
    30  H    2.652506   1.093591   2.163930   1.763677   0.000000
    31  H    4.417967   2.121098   1.092723   2.368787   2.545742
    32  H    4.740994   2.190494   1.089852   2.619552   3.082664
    33  H    4.882226   2.182106   1.089760   3.064809   2.453882
    34  C    3.678349   2.477211   3.088041   2.609192   3.398494
    35  C    4.277939   3.842240   4.598819   3.869787   4.619430
    36  H    3.372216   2.448169   3.043492   2.136298   3.451409
    37  H    4.629681   2.839170   2.899486   3.186431   3.804965
    38  H    5.098955   4.561011   5.091858   4.488512   5.455141
    39  H    3.822582   4.131077   5.144368   3.962434   4.785516
    40  H    4.901150   4.338956   5.054853   4.587918   4.992793
                   31         32         33         34         35
    31  H    0.000000
    32  H    1.774844   0.000000
    33  H    1.763208   1.753909   0.000000
    34  C    3.937199   2.748962   3.713203   0.000000
    35  C    5.449916   4.227749   5.152566   1.520592   0.000000
    36  H    3.636824   2.694246   3.917379   1.091342   2.145731
    37  H    3.827591   2.272177   3.368936   1.100082   2.166784
    38  H    5.885725   4.513441   5.704049   2.108669   1.092950
    39  H    5.895710   4.920567   5.776709   2.202282   1.092238
    40  H    6.014799   4.720089   5.406804   2.193529   1.088960
                   36         37         38         39         40
    36  H    0.000000
    37  H    1.786454   0.000000
    38  H    2.454657   2.420584   0.000000
    39  H    2.498358   3.101610   1.758790   0.000000
    40  H    3.077989   2.555824   1.751648   1.772769   0.000000
 Symmetry turned off by external request.
 Stoichiometry    C11H26BrNO
 Framework group  C1[X(C11H26BrNO)]
 Deg. of freedom   114
 Full point group                 C1      NOp   1
 Rotational constants (GHZ):           0.9409549           0.1593113           0.1532467
 General basis read from cards:  (5D, 7F)
 ======================================================================================================
                                       Pseudopotential Parameters
 ======================================================================================================
  Center     Atomic      Valence      Angular      Power
  Number     Number     Electrons     Momentum     of R      Exponent        Coefficient   SO-Coeffient
 ======================================================================================================
    1          6
                                   No pseudopotential on this center.
    2          6
                                   No pseudopotential on this center.
    3          8
                                   No pseudopotential on this center.
    4          6
                                   No pseudopotential on this center.
    5          1
                                   No pseudopotential on this center.
    6          1
                                   No pseudopotential on this center.
    7          1
                                   No pseudopotential on this center.
    8          1
                                   No pseudopotential on this center.
    9          1
                                   No pseudopotential on this center.
   10          1
                                   No pseudopotential on this center.
   11         35
                                   No pseudopotential on this center.
   12          7
                                   No pseudopotential on this center.
   13          6
                                   No pseudopotential on this center.
   14          6
                                   No pseudopotential on this center.
   15          1
                                   No pseudopotential on this center.
   16          1
                                   No pseudopotential on this center.
   17          1
                                   No pseudopotential on this center.
   18          1
                                   No pseudopotential on this center.
   19          1
                                   No pseudopotential on this center.
   20          6
                                   No pseudopotential on this center.
   21          6
                                   No pseudopotential on this center.
   22          1
                                   No pseudopotential on this center.
   23          1
                                   No pseudopotential on this center.
   24          1
                                   No pseudopotential on this center.
   25          1
                                   No pseudopotential on this center.
   26          1
                                   No pseudopotential on this center.
   27          6
                                   No pseudopotential on this center.
   28          6
                                   No pseudopotential on this center.
   29          1
                                   No pseudopotential on this center.
   30          1
                                   No pseudopotential on this center.
   31          1
                                   No pseudopotential on this center.
   32          1
                                   No pseudopotential on this center.
   33          1
                                   No pseudopotential on this center.
   34          6
                                   No pseudopotential on this center.
   35          6
                                   No pseudopotential on this center.
   36          1
                                   No pseudopotential on this center.
   37          1
                                   No pseudopotential on this center.
   38          1
                                   No pseudopotential on this center.
   39          1
                                   No pseudopotential on this center.
   40          1
                                   No pseudopotential on this center.
 ======================================================================================================
   340 basis functions,   629 primitive gaussians,   355 cartesian basis functions
    71 alpha electrons       71 beta electrons
       nuclear repulsion energy      1295.6550149814 Hartrees.
 NAtoms=   40 NActive=   40 NUniq=   40 SFac= 1.00D+00 NAtFMM=   60 NAOKFM=F Big=F
 Integral buffers will be    131072 words long.
 Raffenetti 2 integral format.
 Two-electron integral symmetry is turned off.
 One-electron integrals computed using PRISM.
   1 Symmetry operations used in ECPInt.
 ECPInt:  NShTT=   10153 NPrTT=   46729 LenC2=    9084 LenP2D=   27289.
 LDataN:  DoStor=T MaxTD1= 4 Len=   56
 NBasis=   340 RedAO= T EigKep=  3.62D-03  NBF=   340
 NBsUse=   340 1.00D-06 EigRej= -1.00D+00 NBFU=   340
 ExpMin= 1.43D-01 ExpMax= 5.74D+05 ExpMxC= 5.74D+03 IAcc=3 IRadAn=         5 AccDes= 0.00D+00
 Harris functional with IExCor=20419 and IRadAn=       5 diagonalized for initial guess.
 HarFok:  IExCor=20419 AccDes= 0.00D+00 IRadAn=         5 IDoV= 1 UseB2=F ITyADJ=14
 ICtDFT=  3500011 ScaDFX=  1.000000  1.000000  1.000000  1.000000
 FoFCou: FMM=F IPFlag=           0 FMFlag=      100000 FMFlg1=           0
         NFxFlg=           0 DoJE=T BraDBF=F KetDBF=T FulRan=T
         wScrn=  0.000000 ICntrl=       500 IOpCl=  0 I1Cent=   200000004 NGrid=           0
         NMat0=    1 NMatS0=      1 NMatT0=    0 NMatD0=    1 NMtDS0=    0 NMtDT0=    0
 Symmetry not used in FoFCou.
 Requested convergence on RMS density matrix=1.00D-08 within  32 cycles.
 Requested convergence on MAX density matrix=1.00D-06.
 Requested convergence on             energy=1.00D-06.
 No special actions if energy rises.
 Integral accuracy reduced to 1.0D-05 until final iterations.
 Initial convergence to 1.0D-05 achieved.  Increase integral accuracy.
 SCF Done:  E(RCAM-B3LYP) =  -3135.89444377     A.U. after   14 cycles
            NFock= 14  Conv=0.43D-08     -V/T= 2.0012
 QCSCF skips out because SCF is already converged.
 DoSCS=F DFT=T ScalE2(SS,OS)=  1.000000  1.000000
 Range of M.O.s used for correlation:     1   340
 NBasis=   340 NAE=    71 NBE=    71 NFC=     0 NFV=     0
 NROrb=    340 NOA=    71 NOB=    71 NVA=   269 NVB=   269
   1 Symmetry operations used in ECPInt.
 ECPInt:  NShTT=   10153 NPrTT=   46729 LenC2=    9084 LenP2D=   27289.
 LDataN:  DoStor=T MaxTD1= 5 Len=  102
 Number of processors reduced to  32 by ecpmxn.
 Symmetrizing basis deriv contribution to polar:
 IMax=3 JMax=2 DiffMx= 0.00D+00
 G2DrvN: will do    41 centers at a time, making    1 passes.
 Calling FoFCou, ICntrl=  3107 FMM=F I1Cent=   0 AccDes= 0.00D+00.
 End of G2Drv F.D. properties file   721 does not exist.
 End of G2Drv F.D. properties file   722 does not exist.
 End of G2Drv F.D. properties file   788 does not exist.
          IDoAtm=1111111111111111111111111111111111111111
          Differentiating once with respect to nuclear coordinates.
 CalDSu exits because no D1Ps are significant.
          There are   123 degrees of freedom in the 1st order CPHF.  IDoFFX=6 NUNeed=     0.
    117 vectors produced by pass  0 Test12= 1.91D-14 1.00D-09 XBig12= 8.88D-02 8.17D-02.
 AX will form   117 AO Fock derivatives at one time.
    117 vectors produced by pass  1 Test12= 1.91D-14 1.00D-09 XBig12= 2.00D-02 2.96D-02.
    117 vectors produced by pass  2 Test12= 1.91D-14 1.00D-09 XBig12= 2.76D-04 1.89D-03.
    117 vectors produced by pass  3 Test12= 1.91D-14 1.00D-09 XBig12= 2.08D-06 1.51D-04.
    117 vectors produced by pass  4 Test12= 1.91D-14 1.00D-09 XBig12= 9.35D-09 1.33D-05.
    117 vectors produced by pass  5 Test12= 1.91D-14 1.00D-09 XBig12= 2.80D-11 4.95D-07.
     42 vectors produced by pass  6 Test12= 1.91D-14 1.00D-09 XBig12= 8.08D-14 3.37D-08.
      2 vectors produced by pass  7 Test12= 1.91D-14 1.00D-09 XBig12= 2.21D-16 1.76D-09.
 InvSVY:  IOpt=1 It=  1 EMax= 3.61D-16
 Solved reduced A of dimension   746 with   123 vectors.
 End of Minotr F.D. properties file   721 does not exist.
 End of Minotr F.D. properties file   722 does not exist.
 End of Minotr F.D. properties file   788 does not exist.

 **********************************************************************

            Population analysis using the SCF Density.

 **********************************************************************

 Alpha  occ. eigenvalues -- -482.54665 -61.62877 -56.19687 -56.19589 -56.19576
 Alpha  occ. eigenvalues --  -19.15948 -14.56643 -10.36308 -10.35637 -10.33653
 Alpha  occ. eigenvalues --  -10.33189 -10.31410 -10.29412 -10.29163 -10.28405
 Alpha  occ. eigenvalues --  -10.27257 -10.26767 -10.21410  -8.40967  -6.42111
 Alpha  occ. eigenvalues --   -6.41806  -6.41782  -2.54368  -2.54291  -2.54273
 Alpha  occ. eigenvalues --   -2.54031  -2.54030  -1.13350  -1.04599  -0.92111
 Alpha  occ. eigenvalues --   -0.90849  -0.90117  -0.85751  -0.79127  -0.78671
 Alpha  occ. eigenvalues --   -0.76706  -0.76310  -0.72818  -0.69142  -0.63893
 Alpha  occ. eigenvalues --   -0.63192  -0.62929  -0.61650  -0.61544  -0.58761
 Alpha  occ. eigenvalues --   -0.57569  -0.54544  -0.53840  -0.52848  -0.52160
 Alpha  occ. eigenvalues --   -0.50888  -0.50356  -0.49821  -0.49660  -0.48971
 Alpha  occ. eigenvalues --   -0.48615  -0.47972  -0.47166  -0.46451  -0.45957
 Alpha  occ. eigenvalues --   -0.45015  -0.44490  -0.44284  -0.42185  -0.39750
 Alpha  occ. eigenvalues --   -0.37390  -0.32629  -0.28627  -0.19290  -0.19138
 Alpha  occ. eigenvalues --   -0.18900
 Alpha virt. eigenvalues --    0.06426   0.08475   0.09609   0.10578   0.10887
 Alpha virt. eigenvalues --    0.11676   0.12789   0.13993   0.14492   0.15015
 Alpha virt. eigenvalues --    0.15238   0.16283   0.16811   0.17143   0.17972
 Alpha virt. eigenvalues --    0.18573   0.19374   0.19571   0.20326   0.20660
 Alpha virt. eigenvalues --    0.20967   0.21571   0.22260   0.22767   0.23149
 Alpha virt. eigenvalues --    0.24236   0.24472   0.26381   0.26799   0.27072
 Alpha virt. eigenvalues --    0.27393   0.27864   0.28412   0.29401   0.30237
 Alpha virt. eigenvalues --    0.32502   0.36043   0.41673   0.47279   0.47804
 Alpha virt. eigenvalues --    0.49695   0.50868   0.51969   0.53545   0.55689
 Alpha virt. eigenvalues --    0.56247   0.56598   0.57706   0.59157   0.60366
 Alpha virt. eigenvalues --    0.62558   0.63182   0.63346   0.63742   0.64453
 Alpha virt. eigenvalues --    0.65322   0.66239   0.66830   0.68000   0.68371
 Alpha virt. eigenvalues --    0.68943   0.69219   0.69659   0.70049   0.70442
 Alpha virt. eigenvalues --    0.71243   0.71603   0.74916   0.75256   0.76036
 Alpha virt. eigenvalues --    0.76589   0.76941   0.78047   0.79677   0.82275
 Alpha virt. eigenvalues --    0.85352   0.86082   0.86599   0.86629   0.87482
 Alpha virt. eigenvalues --    0.87897   0.88708   0.89460   0.89784   0.90718
 Alpha virt. eigenvalues --    0.91037   0.91366   0.92639   0.93130   0.94018
 Alpha virt. eigenvalues --    0.95094   0.95726   0.96331   0.97151   0.98128
 Alpha virt. eigenvalues --    0.99265   0.99897   1.00657   1.01279   1.02858
 Alpha virt. eigenvalues --    1.03129   1.03829   1.05200   1.06141   1.06914
 Alpha virt. eigenvalues --    1.08361   1.10240   1.11071   1.14726   1.16754
 Alpha virt. eigenvalues --    1.18566   1.21190   1.23223   1.27252   1.28826
 Alpha virt. eigenvalues --    1.31296   1.32821   1.34980   1.37648   1.40448
 Alpha virt. eigenvalues --    1.43811   1.44378   1.47013   1.47999   1.51576
 Alpha virt. eigenvalues --    1.53037   1.54415   1.56225   1.57704   1.60943
 Alpha virt. eigenvalues --    1.63184   1.63433   1.65475   1.68014   1.68989
 Alpha virt. eigenvalues --    1.70496   1.71370   1.73699   1.73838   1.80270
 Alpha virt. eigenvalues --    1.82293   1.83973   1.85369   1.86296   1.88124
 Alpha virt. eigenvalues --    1.89480   1.91373   1.92083   1.92994   1.93669
 Alpha virt. eigenvalues --    1.94900   1.97304   1.99376   2.00989   2.02301
 Alpha virt. eigenvalues --    2.03994   2.04470   2.05557   2.07169   2.07606
 Alpha virt. eigenvalues --    2.07803   2.08796   2.09410   2.10027   2.10482
 Alpha virt. eigenvalues --    2.11634   2.12374   2.13221   2.13336   2.14802
 Alpha virt. eigenvalues --    2.15137   2.15626   2.15771   2.16508   2.18493
 Alpha virt. eigenvalues --    2.19226   2.19827   2.20175   2.20956   2.22832
 Alpha virt. eigenvalues --    2.22854   2.24269   2.27937   2.28297   2.29150
 Alpha virt. eigenvalues --    2.30893   2.32286   2.33107   2.33964   2.34550
 Alpha virt. eigenvalues --    2.36725   2.41069   2.41526   2.43702   2.43960
 Alpha virt. eigenvalues --    2.46937   2.47135   2.47718   2.48965   2.51427
 Alpha virt. eigenvalues --    2.51833   2.55227   2.56698   2.61132   2.62602
 Alpha virt. eigenvalues --    2.65777   2.66242   2.66303   2.68112   2.69628
 Alpha virt. eigenvalues --    2.71160   2.72182   2.73675   2.73986   2.75321
 Alpha virt. eigenvalues --    2.76342   2.77023   2.77930   2.78695   2.80266
 Alpha virt. eigenvalues --    2.80405   2.82949   2.83378   2.85586   2.86189
 Alpha virt. eigenvalues --    2.86461   2.89072   2.89858   2.90786   2.91916
 Alpha virt. eigenvalues --    2.92715   2.93252   2.93976   2.94799   2.96593
 Alpha virt. eigenvalues --    2.97132   2.98077   2.98605   3.00212   3.00864
 Alpha virt. eigenvalues --    3.09327   3.17923   3.22918   3.25883   3.26611
 Alpha virt. eigenvalues --    3.28088   3.31522   3.31905   3.34815   3.36789
 Alpha virt. eigenvalues --    3.37741   3.42747   3.43835   3.45233   3.47176
 Alpha virt. eigenvalues --    3.48077   3.48983   3.51931   3.52277   3.53999
 Alpha virt. eigenvalues --    3.54835   3.56122   3.56401   3.57617   3.58431
 Alpha virt. eigenvalues --    3.58956   3.61192   3.66231   8.64930
          Condensed to atoms (all electrons):
               1          2          3          4          5          6
     1  C    4.632714   0.367492   0.180052   0.377485  -0.020808  -0.025442
     2  C    0.367492   4.860383   0.021200  -0.033224   0.394719   0.396649
     3  O    0.180052   0.021200   8.454603  -0.044522  -0.011572  -0.013948
     4  C    0.377485  -0.033224  -0.044522   4.996488   0.002760  -0.006775
     5  H   -0.020808   0.394719  -0.011572   0.002760   0.529309  -0.032436
     6  H   -0.025442   0.396649  -0.013948  -0.006775  -0.032436   0.541300
     7  H   -0.030816   0.005407  -0.000492   0.366537  -0.000149   0.000042
     8  H   -0.028368  -0.007546   0.001267   0.371519  -0.000007   0.003775
     9  H   -0.018234  -0.003466   0.003037   0.359922   0.000061   0.000207
    10  H    0.377323  -0.033934  -0.034794  -0.064167  -0.005515   0.003329
    11  Br  -0.025350   0.057997   0.004573  -0.004364  -0.009829  -0.010423
    12  N   -0.000014   0.000021   0.000394   0.000002  -0.000001   0.000001
    13  C    0.000347   0.000096  -0.028808  -0.000159   0.000013  -0.000020
    14  C    0.000076   0.000002  -0.001211  -0.000122  -0.000000   0.000001
    15  H   -0.000155  -0.000083   0.052256   0.000462  -0.000080   0.000062
    16  H   -0.000007  -0.000003   0.000573  -0.000000   0.000000   0.000000
    17  H    0.000015   0.000000   0.000007  -0.000005  -0.000000   0.000000
    18  H   -0.000119   0.000001   0.005660   0.000326   0.000001   0.000000
    19  H    0.000004  -0.000000   0.000044   0.000000   0.000000   0.000000
    20  C    0.000001   0.000000  -0.000039  -0.000000  -0.000000   0.000000
    21  C    0.000000  -0.000000   0.000000  -0.000000   0.000000  -0.000000
    22  H    0.000000   0.000000  -0.000002   0.000000   0.000000  -0.000000
    23  H   -0.000000   0.000000   0.000001  -0.000000   0.000000  -0.000000
    24  H    0.000000   0.000000  -0.000000   0.000000   0.000000   0.000000
    25  H   -0.000000  -0.000000   0.000000  -0.000000  -0.000000  -0.000000
    26  H    0.000000   0.000000   0.000000  -0.000000   0.000000   0.000000
    27  C    0.000004   0.000027  -0.000165  -0.000000   0.000005   0.000003
    28  C    0.000415  -0.001598  -0.005838  -0.000006   0.000097  -0.000078
    29  H    0.000000  -0.000000  -0.000005  -0.000000   0.000000   0.000000
    30  H    0.000000  -0.000001  -0.000004  -0.000000   0.000000   0.000000
    31  H   -0.000008   0.000031   0.000206   0.000000  -0.000008  -0.000004
    32  H   -0.001436   0.003893   0.011833   0.000054   0.000031   0.000320
    33  H    0.000030   0.000044  -0.000067   0.000001   0.000039   0.000001
    34  C    0.001716  -0.000153  -0.044631   0.000294  -0.000024   0.000281
    35  C   -0.000029   0.000001   0.000556   0.000010  -0.000000  -0.000012
    36  H    0.000001  -0.000036   0.000495  -0.000006   0.000001   0.000009
    37  H   -0.004896   0.000184   0.080521  -0.001818   0.000088  -0.000413
    38  H   -0.000010   0.000001   0.000060   0.000051  -0.000000   0.000007
    39  H    0.000001  -0.000000  -0.000010   0.000002  -0.000000   0.000000
    40  H   -0.000026   0.000001   0.000033   0.000019  -0.000000  -0.000000
               7          8          9         10         11         12
     1  C   -0.030816  -0.028368  -0.018234   0.377323  -0.025350  -0.000014
     2  C    0.005407  -0.007546  -0.003466  -0.033934   0.057997   0.000021
     3  O   -0.000492   0.001267   0.003037  -0.034794   0.004573   0.000394
     4  C    0.366537   0.371519   0.359922  -0.064167  -0.004364   0.000002
     5  H   -0.000149  -0.000007   0.000061  -0.005515  -0.009829  -0.000001
     6  H    0.000042   0.003775   0.000207   0.003329  -0.010423   0.000001
     7  H    0.657250  -0.037448  -0.025969  -0.005196   0.000198  -0.000002
     8  H   -0.037448   0.633969  -0.021549   0.005970   0.000343   0.000008
     9  H   -0.025969  -0.021549   0.535419   0.001879   0.012689  -0.000000
    10  H   -0.005196   0.005970   0.001879   0.671890   0.002646   0.000001
    11  Br   0.000198   0.000343   0.012689   0.002646  35.709446   0.000000
    12  N   -0.000002   0.000008  -0.000000   0.000001   0.000000   6.878904
    13  C   -0.000030   0.000019   0.000003   0.000236   0.000000   0.238166
    14  C   -0.000274  -0.000006   0.000001  -0.000026   0.000000  -0.036812
    15  H    0.000096  -0.000071  -0.000012  -0.001059  -0.000005  -0.026878
    16  H    0.000001  -0.000000   0.000000  -0.000002  -0.000000  -0.042906
    17  H    0.000006   0.000000  -0.000000   0.000004  -0.000000   0.003372
    18  H    0.001739  -0.000004   0.000000  -0.000019  -0.000000  -0.002361
    19  H    0.000002  -0.000000   0.000000  -0.000000  -0.000000  -0.004569
    20  C    0.000000  -0.000000   0.000000  -0.000000   0.000000   0.252819
    21  C    0.000000  -0.000000   0.000000  -0.000000  -0.000000  -0.039326
    22  H   -0.000000  -0.000000  -0.000000  -0.000000   0.000000  -0.034585
    23  H    0.000000   0.000000   0.000000   0.000000  -0.000000  -0.038898
    24  H   -0.000000   0.000000   0.000000   0.000000   0.000000   0.003263
    25  H    0.000000  -0.000000   0.000000   0.000000  -0.000000  -0.004184
    26  H   -0.000000  -0.000000   0.000000  -0.000000  -0.000000  -0.002894
    27  C   -0.000000   0.000000   0.000000  -0.000000  -0.000000   0.246612
    28  C    0.000001  -0.000004   0.000000  -0.000026  -0.000002  -0.038748
    29  H    0.000000   0.000000   0.000000   0.000000  -0.000000  -0.036330
    30  H    0.000000  -0.000000   0.000000  -0.000000  -0.000000  -0.041377
    31  H   -0.000000   0.000000  -0.000000   0.000000   0.000000   0.003629
    32  H   -0.000004   0.000011  -0.000001   0.000078   0.000023  -0.003975
    33  H   -0.000000  -0.000000  -0.000000  -0.000008   0.000000  -0.002521
    34  C   -0.000024  -0.000945  -0.000006  -0.000156   0.000002   0.212664
    35  C    0.000021   0.000171   0.000001   0.000002  -0.000000  -0.034756
    36  H    0.000001   0.000003   0.000000   0.000000  -0.000000  -0.040384
    37  H   -0.000005   0.002480   0.000052   0.000807  -0.000011  -0.028034
    38  H   -0.000010   0.000716  -0.000001   0.000001   0.000000   0.003155
    39  H    0.000000   0.000000  -0.000000  -0.000000   0.000000  -0.003747
    40  H    0.000022   0.000017   0.000000   0.000000   0.000000  -0.002006
              13         14         15         16         17         18
     1  C    0.000347   0.000076  -0.000155  -0.000007   0.000015  -0.000119
     2  C    0.000096   0.000002  -0.000083  -0.000003   0.000000   0.000001
     3  O   -0.028808  -0.001211   0.052256   0.000573   0.000007   0.005660
     4  C   -0.000159  -0.000122   0.000462  -0.000000  -0.000005   0.000326
     5  H    0.000013  -0.000000  -0.000080   0.000000  -0.000000   0.000001
     6  H   -0.000020   0.000001   0.000062   0.000000   0.000000   0.000000
     7  H   -0.000030  -0.000274   0.000096   0.000001   0.000006   0.001739
     8  H    0.000019  -0.000006  -0.000071  -0.000000   0.000000  -0.000004
     9  H    0.000003   0.000001  -0.000012   0.000000  -0.000000   0.000000
    10  H    0.000236  -0.000026  -0.001059  -0.000002   0.000004  -0.000019
    11  Br   0.000000   0.000000  -0.000005  -0.000000  -0.000000  -0.000000
    12  N    0.238166  -0.036812  -0.026878  -0.042906   0.003372  -0.002361
    13  C    4.988498   0.371284   0.345020   0.383398  -0.023840  -0.030353
    14  C    0.371284   4.930157  -0.028305  -0.039638   0.384956   0.387879
    15  H    0.345020  -0.028305   0.474827  -0.019640  -0.001896  -0.005635
    16  H    0.383398  -0.039638  -0.019640   0.603790  -0.004972   0.004633
    17  H   -0.023840   0.384956  -0.001896  -0.004972   0.548300  -0.021561
    18  H   -0.030353   0.387879  -0.005635   0.004633  -0.021561   0.530355
    19  H   -0.035440   0.383578   0.003812  -0.002123  -0.026225  -0.029582
    20  C   -0.041405  -0.003775   0.003101  -0.007761   0.000009  -0.000358
    21  C    0.003696   0.000219  -0.000133  -0.000029  -0.000002  -0.000009
    22  H   -0.004172   0.001744  -0.000003  -0.000361  -0.000042  -0.000056
    23  H   -0.002538  -0.001298   0.000148   0.005299  -0.000047   0.000061
    24  H   -0.000064   0.000002   0.000002  -0.000003  -0.000000  -0.000000
    25  H    0.000024  -0.000013   0.000004  -0.000002  -0.000000  -0.000001
    26  H   -0.000101  -0.000001  -0.000001  -0.000004   0.000000   0.000000
    27  C   -0.041620   0.003772  -0.006876  -0.002076  -0.000082   0.000034
    28  C   -0.002097   0.000196   0.002339  -0.002422   0.000011  -0.000017
    29  H    0.004063  -0.000166   0.000011   0.000149   0.000003   0.000005
    30  H   -0.005314  -0.000062  -0.000191   0.003777  -0.000002   0.000003
    31  H    0.000179  -0.000005   0.000221  -0.000031  -0.000000  -0.000000
    32  H   -0.001373  -0.000005  -0.001275   0.000042   0.000000  -0.000025
    33  H    0.001512   0.000007  -0.000372   0.000489   0.000008   0.000008
    34  C   -0.042498  -0.000820   0.002369   0.004384  -0.000108   0.001998
    35  C   -0.002106  -0.003271  -0.000161  -0.000187   0.000240  -0.004284
    36  H    0.003504  -0.000034   0.000181  -0.000220   0.000002  -0.000002
    37  H    0.005531  -0.002259  -0.007565   0.000357  -0.000025   0.001275
    38  H    0.000002   0.000008  -0.000007   0.000004  -0.000004   0.000266
    39  H    0.000049   0.000043  -0.000008   0.000011  -0.000006   0.000053
    40  H   -0.000178   0.002223   0.000077  -0.000030   0.000076   0.002008
              19         20         21         22         23         24
     1  C    0.000004   0.000001   0.000000   0.000000  -0.000000   0.000000
     2  C   -0.000000   0.000000  -0.000000   0.000000   0.000000   0.000000
     3  O    0.000044  -0.000039   0.000000  -0.000002   0.000001  -0.000000
     4  C    0.000000  -0.000000  -0.000000   0.000000  -0.000000   0.000000
     5  H    0.000000  -0.000000   0.000000   0.000000   0.000000   0.000000
     6  H    0.000000   0.000000  -0.000000  -0.000000  -0.000000   0.000000
     7  H    0.000002   0.000000   0.000000  -0.000000   0.000000  -0.000000
     8  H   -0.000000  -0.000000  -0.000000  -0.000000   0.000000   0.000000
     9  H    0.000000   0.000000   0.000000  -0.000000   0.000000   0.000000
    10  H   -0.000000  -0.000000  -0.000000  -0.000000   0.000000   0.000000
    11  Br  -0.000000   0.000000  -0.000000   0.000000  -0.000000   0.000000
    12  N   -0.004569   0.252819  -0.039326  -0.034585  -0.038898   0.003263
    13  C   -0.035440  -0.041405   0.003696  -0.004172  -0.002538  -0.000064
    14  C    0.383578  -0.003775   0.000219   0.001744  -0.001298   0.000002
    15  H    0.003812   0.003101  -0.000133  -0.000003   0.000148   0.000002
    16  H   -0.002123  -0.007761  -0.000029  -0.000361   0.005299  -0.000003
    17  H   -0.026225   0.000009  -0.000002  -0.000042  -0.000047  -0.000000
    18  H   -0.029582  -0.000358  -0.000009  -0.000056   0.000061  -0.000000
    19  H    0.600456   0.001420   0.000011   0.001719   0.000415   0.000012
    20  C    0.001420   4.868879   0.365722   0.401852   0.396768  -0.026084
    21  C    0.000011   0.365722   4.925051  -0.034346  -0.036115   0.387919
    22  H    0.001719   0.401852  -0.034346   0.550101  -0.030748  -0.004026
    23  H    0.000415   0.396768  -0.036115  -0.030748   0.569568  -0.001477
    24  H    0.000012  -0.026084   0.387919  -0.004026  -0.001477   0.546507
    25  H    0.000009  -0.032655   0.391933  -0.003285   0.004272  -0.023462
    26  H   -0.000002  -0.031478   0.391846   0.004125  -0.005325  -0.025080
    27  C   -0.000091  -0.041628  -0.004879   0.004089  -0.006191   0.000208
    28  C    0.000003   0.003850   0.000198  -0.000147  -0.000073  -0.000005
    29  H   -0.000001  -0.007965   0.003957  -0.000083  -0.000089   0.000117
    30  H   -0.000003  -0.001514  -0.002776   0.000186   0.004138  -0.000038
    31  H    0.000000  -0.000060   0.000000   0.000003  -0.000002  -0.000000
    32  H   -0.000003   0.000053  -0.000023   0.000004   0.000001   0.000000
    33  H   -0.000003  -0.000134   0.000007  -0.000001  -0.000019   0.000000
    34  C   -0.000369  -0.038030  -0.001086  -0.008338   0.004577  -0.000098
    35  C   -0.000789  -0.001757  -0.005483   0.005469   0.000092   0.000067
    36  H   -0.000010  -0.003227   0.001308   0.000062  -0.000161   0.000009
    37  H    0.000040   0.002590   0.000067   0.000018  -0.000102  -0.000001
    38  H    0.000016   0.000190   0.000062  -0.000008  -0.000006  -0.000001
    39  H   -0.000070   0.001044  -0.000772  -0.000752   0.000093   0.000153
    40  H    0.000261  -0.002640   0.000284   0.000437  -0.000013  -0.000001
              25         26         27         28         29         30
     1  C   -0.000000   0.000000   0.000004   0.000415   0.000000   0.000000
     2  C   -0.000000   0.000000   0.000027  -0.001598  -0.000000  -0.000001
     3  O    0.000000   0.000000  -0.000165  -0.005838  -0.000005  -0.000004
     4  C   -0.000000  -0.000000  -0.000000  -0.000006  -0.000000  -0.000000
     5  H   -0.000000   0.000000   0.000005   0.000097   0.000000   0.000000
     6  H   -0.000000   0.000000   0.000003  -0.000078   0.000000   0.000000
     7  H    0.000000  -0.000000  -0.000000   0.000001   0.000000   0.000000
     8  H   -0.000000  -0.000000   0.000000  -0.000004   0.000000  -0.000000
     9  H    0.000000   0.000000   0.000000   0.000000   0.000000   0.000000
    10  H    0.000000  -0.000000  -0.000000  -0.000026   0.000000  -0.000000
    11  Br  -0.000000  -0.000000  -0.000000  -0.000002  -0.000000  -0.000000
    12  N   -0.004184  -0.002894   0.246612  -0.038748  -0.036330  -0.041377
    13  C    0.000024  -0.000101  -0.041620  -0.002097   0.004063  -0.005314
    14  C   -0.000013  -0.000001   0.003772   0.000196  -0.000166  -0.000062
    15  H    0.000004  -0.000001  -0.006876   0.002339   0.000011  -0.000191
    16  H   -0.000002  -0.000004  -0.002076  -0.002422   0.000149   0.003777
    17  H   -0.000000   0.000000  -0.000082   0.000011   0.000003  -0.000002
    18  H   -0.000001   0.000000   0.000034  -0.000017   0.000005   0.000003
    19  H    0.000009  -0.000002  -0.000091   0.000003  -0.000001  -0.000003
    20  C   -0.032655  -0.031478  -0.041628   0.003850  -0.007965  -0.001514
    21  C    0.391933   0.391846  -0.004879   0.000198   0.003957  -0.002776
    22  H   -0.003285   0.004125   0.004089  -0.000147  -0.000083   0.000186
    23  H    0.004272  -0.005325  -0.006191  -0.000073  -0.000089   0.004138
    24  H   -0.023462  -0.025080   0.000208  -0.000005   0.000117  -0.000038
    25  H    0.554105  -0.028363  -0.001684  -0.000023   0.000539   0.000139
    26  H   -0.028363   0.562358   0.001970   0.000046  -0.000822   0.000910
    27  C   -0.001684   0.001970   4.892942   0.362554   0.399639   0.393689
    28  C   -0.000023   0.000046   0.362554   4.933928  -0.033521  -0.034017
    29  H    0.000539  -0.000822   0.399639  -0.033521   0.567305  -0.032246
    30  H    0.000139   0.000910   0.393689  -0.034017  -0.032246   0.581821
    31  H   -0.000000   0.000010  -0.026311   0.376063  -0.005628  -0.000913
    32  H   -0.000001   0.000006  -0.028966   0.386595  -0.002196   0.003672
    33  H   -0.000000  -0.000003  -0.032570   0.397379   0.004144  -0.005996
    34  C    0.004180  -0.000462  -0.036816  -0.001731  -0.007375   0.004324
    35  C   -0.001445   0.000191   0.002858   0.000252   0.000069  -0.000178
    36  H    0.000036  -0.000114  -0.003471  -0.002119   0.004051   0.000497
    37  H    0.000026  -0.000004  -0.001986  -0.000492   0.000047  -0.000155
    38  H   -0.000038   0.000000  -0.000069   0.000001  -0.000010   0.000003
    39  H    0.002633  -0.000016  -0.000076   0.000001   0.000005  -0.000007
    40  H   -0.000022  -0.000009  -0.000012  -0.000012   0.000002   0.000007
              31         32         33         34         35         36
     1  C   -0.000008  -0.001436   0.000030   0.001716  -0.000029   0.000001
     2  C    0.000031   0.003893   0.000044  -0.000153   0.000001  -0.000036
     3  O    0.000206   0.011833  -0.000067  -0.044631   0.000556   0.000495
     4  C    0.000000   0.000054   0.000001   0.000294   0.000010  -0.000006
     5  H   -0.000008   0.000031   0.000039  -0.000024  -0.000000   0.000001
     6  H   -0.000004   0.000320   0.000001   0.000281  -0.000012   0.000009
     7  H   -0.000000  -0.000004  -0.000000  -0.000024   0.000021   0.000001
     8  H    0.000000   0.000011  -0.000000  -0.000945   0.000171   0.000003
     9  H   -0.000000  -0.000001  -0.000000  -0.000006   0.000001   0.000000
    10  H    0.000000   0.000078  -0.000008  -0.000156   0.000002   0.000000
    11  Br   0.000000   0.000023   0.000000   0.000002  -0.000000  -0.000000
    12  N    0.003629  -0.003975  -0.002521   0.212664  -0.034756  -0.040384
    13  C    0.000179  -0.001373   0.001512  -0.042498  -0.002106   0.003504
    14  C   -0.000005  -0.000005   0.000007  -0.000820  -0.003271  -0.000034
    15  H    0.000221  -0.001275  -0.000372   0.002369  -0.000161   0.000181
    16  H   -0.000031   0.000042   0.000489   0.004384  -0.000187  -0.000220
    17  H   -0.000000   0.000000   0.000008  -0.000108   0.000240   0.000002
    18  H   -0.000000  -0.000025   0.000008   0.001998  -0.004284  -0.000002
    19  H    0.000000  -0.000003  -0.000003  -0.000369  -0.000789  -0.000010
    20  C   -0.000060   0.000053  -0.000134  -0.038030  -0.001757  -0.003227
    21  C    0.000000  -0.000023   0.000007  -0.001086  -0.005483   0.001308
    22  H    0.000003   0.000004  -0.000001  -0.008338   0.005469   0.000062
    23  H   -0.000002   0.000001  -0.000019   0.004577   0.000092  -0.000161
    24  H   -0.000000   0.000000   0.000000  -0.000098   0.000067   0.000009
    25  H   -0.000000  -0.000001  -0.000000   0.004180  -0.001445   0.000036
    26  H    0.000010   0.000006  -0.000003  -0.000462   0.000191  -0.000114
    27  C   -0.026311  -0.028966  -0.032570  -0.036816   0.002858  -0.003471
    28  C    0.376063   0.386595   0.397379  -0.001731   0.000252  -0.002119
    29  H   -0.005628  -0.002196   0.004144  -0.007375   0.000069   0.004051
    30  H   -0.000913   0.003672  -0.005996   0.004324  -0.000178   0.000497
    31  H    0.572502  -0.019211  -0.026825  -0.000101  -0.000002  -0.000050
    32  H   -0.019211   0.495072  -0.024288   0.003112   0.000038   0.000458
    33  H   -0.026825  -0.024288   0.549578  -0.000041  -0.000010   0.000004
    34  C   -0.000101   0.003112  -0.000041   5.064955   0.368280   0.390067
    35  C   -0.000002   0.000038  -0.000010   0.368280   4.918253  -0.040310
    36  H   -0.000050   0.000458   0.000004   0.390067  -0.040310   0.585672
    37  H    0.000014  -0.000496  -0.000048   0.310810  -0.021490  -0.018358
    38  H   -0.000000   0.000012  -0.000000  -0.026157   0.388802  -0.002262
    39  H    0.000000  -0.000003   0.000000  -0.034623   0.385685  -0.005826
    40  H    0.000000   0.000007  -0.000000  -0.032089   0.390549   0.004536
              37         38         39         40
     1  C   -0.004896  -0.000010   0.000001  -0.000026
     2  C    0.000184   0.000001  -0.000000   0.000001
     3  O    0.080521   0.000060  -0.000010   0.000033
     4  C   -0.001818   0.000051   0.000002   0.000019
     5  H    0.000088  -0.000000  -0.000000  -0.000000
     6  H   -0.000413   0.000007   0.000000  -0.000000
     7  H   -0.000005  -0.000010   0.000000   0.000022
     8  H    0.002480   0.000716   0.000000   0.000017
     9  H    0.000052  -0.000001  -0.000000   0.000000
    10  H    0.000807   0.000001  -0.000000   0.000000
    11  Br  -0.000011   0.000000   0.000000   0.000000
    12  N   -0.028034   0.003155  -0.003747  -0.002006
    13  C    0.005531   0.000002   0.000049  -0.000178
    14  C   -0.002259   0.000008   0.000043   0.002223
    15  H   -0.007565  -0.000007  -0.000008   0.000077
    16  H    0.000357   0.000004   0.000011  -0.000030
    17  H   -0.000025  -0.000004  -0.000006   0.000076
    18  H    0.001275   0.000266   0.000053   0.002008
    19  H    0.000040   0.000016  -0.000070   0.000261
    20  C    0.002590   0.000190   0.001044  -0.002640
    21  C    0.000067   0.000062  -0.000772   0.000284
    22  H    0.000018  -0.000008  -0.000752   0.000437
    23  H   -0.000102  -0.000006   0.000093  -0.000013
    24  H   -0.000001  -0.000001   0.000153  -0.000001
    25  H    0.000026  -0.000038   0.002633  -0.000022
    26  H   -0.000004   0.000000  -0.000016  -0.000009
    27  C   -0.001986  -0.000069  -0.000076  -0.000012
    28  C   -0.000492   0.000001   0.000001  -0.000012
    29  H    0.000047  -0.000010   0.000005   0.000002
    30  H   -0.000155   0.000003  -0.000007   0.000007
    31  H    0.000014  -0.000000   0.000000   0.000000
    32  H   -0.000496   0.000012  -0.000003   0.000007
    33  H   -0.000048  -0.000000   0.000000  -0.000000
    34  C    0.310810  -0.026157  -0.034623  -0.032089
    35  C   -0.021490   0.388802   0.385685   0.390549
    36  H   -0.018358  -0.002262  -0.005826   0.004536
    37  H    0.469558  -0.002882   0.003078  -0.003224
    38  H   -0.002882   0.532251  -0.026014  -0.021202
    39  H    0.003078  -0.026014   0.601784  -0.031870
    40  H   -0.003224  -0.021202  -0.031870   0.562499
 Mulliken charges:
               1
     1  C    0.218041
     2  C   -0.028105
     3  O   -0.631264
     4  C   -0.320763
     5  H    0.153304
     6  H    0.143565
     7  H    0.069097
     8  H    0.075678
     9  H    0.155967
    10  H    0.080736
    11  Br  -0.737930
    12  N   -0.377706
    13  C   -0.083523
    14  C   -0.348043
    15  H    0.215423
    16  H    0.115508
    17  H    0.141808
    18  H    0.158082
    19  H    0.107479
    20  C   -0.057788
    21  C   -0.347303
    22  H    0.151146
    23  H    0.137669
    24  H    0.142081
    25  H    0.137277
    26  H    0.133221
    27  C   -0.072841
    28  C   -0.340953
    29  H    0.142330
    30  H    0.131627
    31  H    0.126304
    32  H    0.177960
    33  H    0.139657
    34  C   -0.097332
    35  C   -0.345335
    36  H    0.125689
    37  H    0.216722
    38  H    0.153074
    39  H    0.109166
    40  H    0.130277
 Sum of Mulliken charges =  -0.00000
 Mulliken charges with hydrogens summed into heavy atoms:
               1
     1  C    0.298777
     2  C    0.268765
     3  O   -0.631264
     4  C   -0.020022
    11  Br  -0.737930
    12  N   -0.377706
    13  C    0.247408
    14  C    0.059325
    20  C    0.231028
    21  C    0.065276
    27  C    0.201116
    28  C    0.102968
    34  C    0.245079
    35  C    0.047182
 APT charges:
               1
     1  C   -0.256742
     2  C   -0.720406
     3  O   -0.566061
     4  C   -0.930751
     5  H    0.585283
     6  H    0.479113
     7  H    0.252750
     8  H    0.330987
     9  H    0.376371
    10  H    0.282987
    11  Br  -0.714436
    12  N   -0.020058
    13  C   -0.350302
    14  C   -0.874585
    15  H   -0.075578
    16  H    0.718127
    17  H    0.337076
    18  H   -0.130932
    19  H    0.737608
    20  C   -0.971564
    21  C   -1.775617
    22  H    0.193890
    23  H    0.695902
    24  H    1.080738
    25  H    0.086429
    26  H    0.742078
    27  C   -1.549546
    28  C   -0.704732
    29  H    0.738558
    30  H    0.829523
    31  H    0.867217
    32  H   -0.218473
    33  H    0.155615
    34  C   -0.220658
    35  C   -1.066601
    36  H    0.632479
    37  H   -0.127713
    38  H    0.178514
    39  H    0.893561
    40  H    0.079949
 Sum of APT charges =  -0.00000
 APT charges with hydrogens summed into heavy atoms:
               1
     1  C    0.026246
     2  C    0.343991
     3  O   -0.566061
     4  C    0.029357
    11  Br  -0.714436
    12  N   -0.020058
    13  C    0.292247
    14  C    0.069168
    20  C   -0.081772
    21  C    0.133628
    27  C    0.018534
    28  C    0.099625
    34  C    0.284107
    35  C    0.085423
 Electronic spatial extent (au):  <R**2>=           9431.7669
 Charge=              0.0000 electrons
 Dipole moment (field-independent basis, Debye):
    X=              0.0774    Y=            -20.2673    Z=            -10.9740  Tot=             23.0478
 Quadrupole moment (field-independent basis, Debye-Ang):
   XX=            -97.5065   YY=            -52.6591   ZZ=           -113.5234
   XY=            -37.1596   XZ=            -19.4281   YZ=             -3.4064
 Traceless Quadrupole moment (field-independent basis, Debye-Ang):
   XX=             -9.6102   YY=             35.2373   ZZ=            -25.6271
   XY=            -37.1596   XZ=            -19.4281   YZ=             -3.4064
 Octapole moment (field-independent basis, Debye-Ang**2):
  XXX=           -423.6864  YYY=            242.9873  ZZZ=            -64.9613  XYY=            -56.4606
  XXY=            119.1404  XXZ=            -39.0370  XZZ=           -165.1505  YZZ=            114.2647
  YYZ=           -115.3599  XYZ=             -8.5348
 Hexadecapole moment (field-independent basis, Debye-Ang**3):
 XXXX=          -1991.9133 YYYY=          -5786.0763 ZZZZ=          -2279.3552 XXXY=            831.3094
 XXXZ=            -90.9411 YYYX=            337.9611 YYYZ=           -794.1321 ZZZX=           -133.5525
 ZZZY=          -1151.3812 XXYY=          -1348.2141 XXZZ=           -731.3588 YYZZ=          -1506.5188
 XXYZ=           -371.4685 YYXZ=           -208.7930 ZZXY=            169.7195
 N-N= 1.295655014981D+03 E-N=-1.005332385885D+04  KE= 3.131990365056D+03
  Exact polarizability:   0.000   0.000   0.000   0.000   0.000   0.000
 Approx polarizability: 161.178   8.049 200.728   7.070  22.551 168.833
   1 Symmetry operations used in ECPInt.
 ECPInt:  NShTT=   10153 NPrTT=   46729 LenC2=    9084 LenP2D=   27289.
 LDataN:  DoStor=T MaxTD1= 6 Len=  172
 Calling FoFJK, ICntrl=    100147 FMM=F ISym2X=0 I1Cent= 0 IOpClX= 0 NMat=1 NMatS=1 NMatT=0.
 -------------------------------------------------------------------
 Center     Atomic                   Forces (Hartrees/Bohr)
 Number     Number              X              Y              Z
 -------------------------------------------------------------------
      1        6           0.000000037   -0.000000264   -0.000000412
      2        6           0.000000421    0.000000185   -0.000000425
      3        8           0.000000096    0.000000225    0.000000175
      4        6          -0.000000780    0.000000124    0.000000376
      5        1           0.000000171    0.000000081    0.000000025
      6        1           0.000000071    0.000000442   -0.000000302
      7        1          -0.000000357   -0.000000218    0.000000240
      8        1          -0.000000324   -0.000000060   -0.000000252
      9        1          -0.000000467   -0.000000348   -0.000000127
     10        1          -0.000000285   -0.000000179    0.000000325
     11       35          -0.000000363   -0.000000013   -0.000000070
     12        7          -0.000000311   -0.000000096   -0.000000474
     13        6           0.000000718    0.000000100    0.000000575
     14        6          -0.000000590   -0.000000791    0.000000071
     15        1          -0.000000014   -0.000000105    0.000000235
     16        1           0.000000261   -0.000000364    0.000000327
     17        1           0.000000099   -0.000000384    0.000000487
     18        1          -0.000000129    0.000000101    0.000000244
     19        1          -0.000000168   -0.000000249    0.000000540
     20        6          -0.000000006    0.000000038    0.000000362
     21        6           0.000000041   -0.000000139   -0.000000383
     22        1          -0.000000117   -0.000000236    0.000000242
     23        1           0.000000375    0.000000119    0.000000039
     24        1           0.000000128    0.000000241    0.000000093
     25        1          -0.000000013    0.000000191   -0.000000332
     26        1           0.000000241    0.000000247   -0.000000214
     27        6          -0.000000045    0.000000103    0.000000238
     28        6           0.000000246    0.000000462    0.000000085
     29        1           0.000000606    0.000000186   -0.000000334
     30        1           0.000000622    0.000000072    0.000000022
     31        1           0.000000770    0.000000210   -0.000000045
     32        1           0.000000390   -0.000000099   -0.000000112
     33        1           0.000000761    0.000000064   -0.000000078
     34        6          -0.000000054    0.000000193    0.000000146
     35        6          -0.000000491   -0.000000425   -0.000000723
     36        1          -0.000000278    0.000000128   -0.000000240
     37        1          -0.000000032   -0.000000052   -0.000000279
     38        1          -0.000000361    0.000000399   -0.000000202
     39        1          -0.000000501    0.000000194    0.000000035
     40        1          -0.000000367   -0.000000082    0.000000120
 -------------------------------------------------------------------
 Cartesian Forces:  Max     0.000000791 RMS     0.000000316
 IRC-IRC-IRC-IRC-IRC-IRC-IRC-IRC-IRC-IRC-IRC-IRC-IRC-IRC-IRC-IRC-IRC-IRC
          ******** Start new reaction path calculation ********
 Supplied step size of   0.1000 bohr.
    Integration on MW PES will use step size of   0.3302 sqrt(amu)*bohr.
 Point Number:   0          Path Number:   1
 Calculating another point on the path.
 IRC-IRC-IRC-IRC-IRC-IRC-IRC-IRC-IRC-IRC-IRC-IRC-IRC-IRC-IRC-IRC-IRC-IRC
                          Input orientation:                          
 ---------------------------------------------------------------------
 Center     Atomic      Atomic             Coordinates (Angstroms)
 Number     Number       Type             X           Y           Z
 ---------------------------------------------------------------------
      1          6           0       -1.152575    1.370235    0.322132
      2          6           0       -0.038324    1.226489    1.223967
      3          8           0       -0.711503    0.019712    0.256885
      4          6           0       -1.000672    2.206216   -0.918429
      5          1           0       -0.193846    0.950528    2.254070
      6          1           0        0.966094    1.394279    0.869599
      7          1           0       -1.776767    1.973033   -1.655824
      8          1           0       -0.019414    2.036672   -1.372587
      9          1           0       -1.065707    3.260398   -0.639590
     10          1           0       -2.130218    1.488084    0.798448
     11         35           0        0.312727    3.670089    2.212092
     12          7           0        0.093675   -2.889326   -1.276753
     13          6           0       -1.365430   -2.579248   -0.954031
     14          6           0       -2.207216   -1.997118   -2.074428
     15          1           0       -1.343483   -1.844431   -0.146637
     16          1           0       -1.782114   -3.526711   -0.601630
     17          1           0       -3.238202   -1.975560   -1.712735
     18          1           0       -1.926242   -0.964189   -2.279538
     19          1           0       -2.203044   -2.576607   -3.000064
     20          6           0        0.151088   -3.929132   -2.368366
     21          6           0        1.530232   -4.499111   -2.663177
     22          1           0       -0.263345   -3.466995   -3.261309
     23          1           0       -0.532226   -4.725490   -2.063659
     24          1           0        1.455151   -5.112165   -3.564282
     25          1           0        2.272342   -3.722602   -2.857643
     26          1           0        1.901140   -5.142180   -1.864227
     27          6           0        0.711521   -3.486290   -0.021228
     28          6           0        0.567771   -2.664162    1.249223
     29          1           0        1.764857   -3.638783   -0.252651
     30          1           0        0.250102   -4.470197    0.100684
     31          1           0        1.244552   -3.091395    1.993137
     32          1           0        0.821450   -1.613642    1.109592
     33          1           0       -0.441746   -2.702130    1.657865
     34          6           0        0.870632   -1.618817   -1.641368
     35          6           0        0.829927   -1.188771   -3.099259
     36          1           0        1.904458   -1.810180   -1.349037
     37          1           0        0.454030   -0.832911   -0.996419
     38          1           0        1.367115   -0.238681   -3.156381
     39          1           0        1.329063   -1.883206   -3.778527
     40          1           0       -0.178001   -1.003247   -3.467289
 ---------------------------------------------------------------------
                    Distance matrix (angstroms):
                    1          2          3          4          5
     1  C    0.000000
     2  C    1.440668   0.000000
     3  O    1.422221   1.686632   0.000000
     4  C    1.503640   2.544768   2.499156   0.000000
     5  H    2.197202   1.077707   2.263435   3.506062   0.000000
     6  H    2.188391   1.078233   2.253705   2.779290   1.859876
     7  H    2.159929   3.445680   2.934059   1.095650   4.340326
     8  H    2.144823   2.720083   2.683708   1.094473   3.789825
     9  H    2.122539   2.943663   3.381001   1.092374   3.803802
    10  H    1.093870   2.150702   2.112383   2.176983   2.481399
    11  Br   3.317889   2.659099   4.265810   3.697040   2.766657
    12  N    4.717354   4.817775   3.385684   5.224034   5.224352
    13  C    4.155998   4.581323   2.940839   4.799477   4.911604
    14  C    4.265541   5.096582   3.426337   4.523284   5.610542
    15  H    3.254269   3.607291   2.009293   4.137744   3.859645
    16  H    5.022921   5.382055   3.802680   5.794607   5.542860
    17  H    4.436763   5.395976   3.774218   4.808816   5.793586
    18  H    3.580054   4.542891   2.979445   3.572221   5.217369
    19  H    5.264792   6.082105   4.424171   5.352971   6.639540
    20  C    6.084538   6.286586   4.819686   6.408694   6.730303
    21  C    7.110467   7.095967   5.828542   7.376383   7.539916
    22  H    6.085275   6.495931   4.973496   6.182075   7.066735
    23  H    6.575309   6.817513   5.285263   7.041274   7.139641
    24  H    7.995371   8.083089   6.755137   8.160288   8.563216
    25  H    6.912164   6.818520   5.710388   7.044434   7.351860
    26  H    7.517771   7.338828   6.161992   7.957007   7.646596
    27  C    5.213308   4.931842   3.793995   6.011755   5.067744
    28  C    4.482795   3.937659   3.134400   5.556916   3.828285
    29  H    5.825121   5.394694   4.447086   6.500417   5.584079
    30  H    6.010589   5.813534   4.594384   6.868589   5.849652
    31  H    5.333349   4.569629   4.064445   6.448482   4.298164
    32  H    3.663385   2.969619   2.396852   4.693007   2.985905
    33  H    4.344377   3.973042   3.073100   5.571494   3.709289
    34  C    4.108908   4.139096   2.965011   4.319177   4.786344
    35  C    4.710068   5.027686   3.885890   4.430919   5.855155
    36  H    4.717339   4.429007   3.573617   4.975604   5.000677
    37  H    3.028796   3.068168   1.912120   3.370242   3.763785
    38  H    4.586666   4.827985   4.004722   4.073372   5.755328
    39  H    5.792997   6.046892   4.906073   5.507376   6.836778
    40  H    4.576344   5.196068   3.898787   4.180207   6.045779
                    6          7          8          9         10
     6  H    0.000000
     7  H    3.773063   0.000000
     8  H    2.532053   1.781169   0.000000
     9  H    3.144561   1.787637   1.769044   0.000000
    10  H    3.098550   2.526570   3.077310   2.518379   0.000000
    11  Br   2.721853   4.712404   3.953263   3.193747   3.567564
    12  N    4.870032   5.223484   4.928228   6.290409   5.330467
    13  C    4.954852   4.624389   4.826351   5.855781   4.494361
    14  C    5.498979   4.015298   4.642254   5.568058   4.517298
    15  H    4.105622   4.127761   4.280079   5.136092   3.552154
    16  H    5.825231   5.599870   5.886656   6.824920   5.218196
    17  H    5.974979   4.210751   5.155027   5.769456   4.419333
    18  H    4.883139   3.006432   3.669294   4.612709   3.940717
    19  H    6.386366   4.763184   5.357170   6.398125   5.563786
    20  C    6.283897   6.249791   6.050741   7.493904   6.676773
    21  C    6.894259   7.337550   6.839845   8.428747   7.824848
    22  H    6.496761   5.870428   5.823841   7.264640   6.672305
    23  H    6.949859   6.825352   6.816700   8.129390   7.025222
    24  H    7.888745   8.017951   7.621269   9.219997   8.686287
    25  H    6.463829   7.090833   6.373913   8.051373   7.739560
    26  H    7.146567   8.012283   7.447560   8.994733   8.203785
    27  C    4.967730   6.218335   5.732674   7.004192   5.787206
    28  C    4.095574   5.953129   5.414473   6.429330   4.972273
    29  H    5.218159   6.782660   6.053814   7.467296   6.523893
    30  H    5.957848   6.979164   6.677013   7.876640   6.453984
    31  H    4.632618   6.934819   6.262809   7.253538   5.812743
    32  H    3.020946   5.221350   4.493669   5.511558   4.293001
    33  H    4.402721   5.883874   5.640766   6.420231   4.598634
    34  C    3.923368   4.462097   3.771872   5.344128   4.960911
    35  C    4.737354   4.344579   3.755830   5.425726   5.578542
    36  H    4.008919   5.287555   4.301175   5.919117   5.636386
    37  H    2.950358   3.644803   2.932602   4.380879   3.909847
    38  H    4.363014   4.126420   3.206496   4.949385   5.554613
    39  H    5.699011   5.387265   4.792951   6.484173   6.654392
    40  H    5.085832   3.833498   3.695137   5.192550   5.311723
                   11         12         13         14         15
    11  Br   0.000000
    12  N    7.432762   0.000000
    13  C    7.203802   1.526199   0.000000
    14  C    7.539337   2.593534   1.517488   0.000000
    15  H    6.222264   2.105799   1.091936   2.117954   0.000000
    16  H    8.006205   2.092996   1.093388   2.165526   1.797076
    17  H    7.738651   3.482305   2.108874   1.092803   2.461670
    18  H    6.831124   2.965096   2.163307   1.089935   2.379853
    19  H    8.515685   2.888341   2.210849   1.092075   3.068709
    20  C    8.874395   1.508679   2.474339   3.062789   3.393494
    21  C    9.590954   2.564620   3.871938   4.535980   4.651724
    22  H    9.012654   2.097529   2.706698   2.710693   3.674315
    23  H    9.459479   2.093436   2.555749   3.201519   3.554379
    24  H   10.573534   3.468058   4.602690   5.033500   5.494610
    25  H    9.175739   2.817828   4.261969   4.863863   4.894004
    26  H    9.838471   2.947441   4.250594   5.178242   4.934860
    27  C    7.507364   1.521330   2.450831   3.866820   2.633339
    28  C    6.412091   2.579927   2.932373   4.380886   2.504652
    29  H    7.848774   2.098409   3.378349   4.668116   3.590643
    30  H    8.409888   2.102607   2.701491   4.109215   3.081449
    31  H    6.828902   3.472396   3.969899   5.445846   3.582105
    32  H    5.421450   2.802083   3.158066   4.411106   2.513625
    33  H    6.440619   2.988929   2.773138   4.188549   2.192032
    34  C    6.567567   1.533232   2.528801   3.131103   2.680938
    35  C    7.217095   2.599131   3.369721   3.305744   3.724457
    36  H    6.726707   2.109198   3.382256   4.179354   3.463533
    37  H    5.530960   2.106487   2.522285   3.098340   2.230775
    38  H    6.723892   3.490067   4.218459   4.127780   4.357102
    39  H    8.231618   2.966031   3.965166   3.927111   4.509394
    40  H    7.371313   2.903368   3.195345   2.654347   3.618379
                   16         17         18         19         20
    16  H    0.000000
    17  H    2.400170   0.000000
    18  H    3.066377   1.750822   0.000000
    19  H    2.613880   1.757847   1.787644   0.000000
    20  C    2.649635   3.966558   3.621336   2.787526   0.000000
    21  C    4.020842   5.478103   4.958837   4.212702   1.521127
    22  H    3.063351   3.670454   3.161192   2.150225   1.087508
    23  H    2.266455   3.873961   4.017122   2.878574   1.092681
    24  H    4.665925   5.940883   5.503644   4.486623   2.128465
    25  H    4.643984   5.893138   5.056794   4.621977   2.186726
    26  H    4.215477   6.038482   5.681280   4.971581   2.188224
    27  C    2.560609   4.554538   4.291708   4.265640   2.453417
    28  C    3.113135   4.871633   4.643508   5.073611   3.854962
    29  H    3.565859   5.470718   4.988581   4.941734   2.676716
    30  H    2.348044   4.656175   4.763824   4.383862   2.529578
    31  H    4.010364   5.922302   5.730156   6.089580   4.573858
    32  H    3.656044   4.957549   4.411100   5.192701   4.231675
    33  H    2.753514   4.439484   4.552726   4.981389   4.250591
    34  C    3.429020   4.124910   2.942500   3.494410   2.526624
    35  C    4.304286   4.369344   2.884242   3.336892   2.916266
    36  H    4.134720   5.158156   4.031848   4.492758   2.933138
    37  H    3.523174   3.930818   2.707272   3.757008   3.400088
    38  H    5.220683   5.129309   3.484453   4.270406   3.964734
    39  H    4.740592   5.013576   3.699807   3.682742   2.749908
    40  H    4.141624   3.659055   2.113913   2.606638   3.142727
                   21         22         23         24         25
    21  C    0.000000
    22  H    2.154053   0.000000
    23  H    2.159723   1.757975   0.000000
    24  H    1.092457   2.398251   2.520131   0.000000
    25  H    1.091564   2.580309   3.082499   1.760121   0.000000
    26  H    1.090610   3.072959   2.476827   1.757838   1.771967
    27  C    2.945503   3.383617   2.693334   3.968588   3.246114
    28  C    4.427216   4.656200   4.053918   5.472659   4.570799
    29  H    2.570185   3.632512   3.120461   3.637812   2.655287
    30  H    3.046062   3.545848   2.315511   3.911041   3.660608
    31  H    4.872837   5.479419   4.720678   5.917159   4.998484
    32  H    4.802300   4.869956   4.646026   5.872507   4.721415
    33  H    5.078311   4.981478   4.236970   6.056179   5.366325
    34  C    3.126541   2.706635   3.434787   4.030229   2.805357
    35  C    3.411590   2.532155   3.928908   4.000022   2.925618
    36  H    3.016183   3.331845   3.866154   4.001536   2.463451
    37  H    4.168611   3.547217   4.154982   5.090008   3.888538
    38  H    4.291983   3.618206   4.993295   4.891317   3.611978
    39  H    2.850866   2.304705   3.805753   3.238515   2.263003
    40  H    3.973124   2.473815   3.993838   4.422646   3.710895
                   26         27         28         29         30
    26  H    0.000000
    27  C    2.748419   0.000000
    28  C    4.196667   1.520067   0.000000
    29  H    2.208156   1.089186   2.153724   0.000000
    30  H    2.652991   1.093546   2.163751   1.763683   0.000000
    31  H    4.417702   2.120786   1.092688   2.369370   2.543896
    32  H    4.739189   2.190354   1.089698   2.616662   3.082894
    33  H    4.883451   2.182724   1.089750   3.065369   2.455510
    34  C    3.677730   2.477424   3.088688   2.609298   3.398554
    35  C    4.278112   3.842771   4.599435   3.870378   4.619912
    36  H    3.371595   2.448575   3.044170   2.136665   3.451706
[...]
    39  H    0.000001  -0.000001  -0.000000  -0.000000  -0.000000  -0.003959
    40  H    0.000017   0.000047   0.000000   0.000002   0.000000  -0.001959
              13         14         15         16         17         18
     1  C   -0.000149   0.000043   0.001289  -0.000011   0.000012   0.000049
     2  C   -0.000057  -0.000005   0.000444   0.000001   0.000000   0.000047
     3  O   -0.042704  -0.003378   0.078184   0.000866   0.000044   0.010562
     4  C   -0.000242  -0.000053   0.000746  -0.000001  -0.000007  -0.000211
     5  H   -0.000027   0.000001   0.000135  -0.000000  -0.000000  -0.000001
     6  H    0.000017  -0.000000  -0.000089  -0.000000   0.000000  -0.000001
     7  H   -0.000109  -0.000398   0.000304   0.000002   0.000015   0.002438
     8  H    0.000042  -0.000015  -0.000128  -0.000000   0.000000   0.000024
     9  H    0.000005  -0.000002  -0.000022   0.000000  -0.000000   0.000023
    10  H    0.000560  -0.000048  -0.002590  -0.000003   0.000002  -0.000003
    11  Br   0.000001   0.000000  -0.000013  -0.000000  -0.000000  -0.000001
    12  N    0.241704  -0.035498  -0.024957  -0.044859   0.003400  -0.002357
    13  C    5.052129   0.371099   0.297232   0.374813  -0.023868  -0.031584
    14  C    0.371099   4.948997  -0.027074  -0.041965   0.382376   0.378542
    15  H    0.297232  -0.027074   0.483992  -0.014477  -0.001596  -0.004696
    16  H    0.374813  -0.041965  -0.014477   0.627214  -0.005450   0.005116
    17  H   -0.023868   0.382376  -0.001596  -0.005450   0.565842  -0.021434
    18  H   -0.031584   0.378542  -0.004696   0.005116  -0.021434   0.532011
    19  H   -0.035714   0.376680   0.003837  -0.001381  -0.027783  -0.029032
    20  C   -0.042284  -0.003908   0.002928  -0.008073   0.000012  -0.000364
    21  C    0.003837   0.000228  -0.000125  -0.000023  -0.000002  -0.000006
    22  H   -0.004282   0.001627   0.000021  -0.000371  -0.000068  -0.000054
    23  H   -0.002425  -0.001184   0.000073   0.005557  -0.000051   0.000068
    24  H   -0.000069   0.000002   0.000002  -0.000003  -0.000000  -0.000000
    25  H    0.000023  -0.000012   0.000003  -0.000002  -0.000000  -0.000001
    26  H   -0.000086  -0.000003  -0.000002  -0.000003   0.000000   0.000000
    27  C   -0.043997   0.003927  -0.006861  -0.001429  -0.000091   0.000048
    28  C    0.001586   0.000074   0.002667  -0.002918   0.000017   0.000062
    29  H    0.004084  -0.000174  -0.000035   0.000178   0.000003   0.000006
    30  H   -0.004917  -0.000072  -0.000136   0.003486  -0.000000   0.000005
    31  H    0.000327  -0.000007   0.000285  -0.000034  -0.000000  -0.000001
    32  H   -0.004467   0.000178  -0.002659  -0.000248  -0.000000  -0.000205
    33  H    0.001497  -0.000008  -0.001256   0.000473   0.000003   0.000002
    34  C   -0.053585  -0.001575   0.012574   0.004672  -0.000096   0.002606
    35  C   -0.002090  -0.002925  -0.000505  -0.000215   0.000259  -0.005008
    36  H    0.003885  -0.000111   0.000165  -0.000222   0.000003   0.000025
    37  H    0.015576  -0.002376  -0.018551   0.000220  -0.000012   0.001069
    38  H    0.000030   0.000010  -0.000028   0.000004  -0.000004   0.000271
    39  H    0.000020  -0.000006   0.000001   0.000012  -0.000007   0.000090
    40  H   -0.000029   0.002542   0.000012  -0.000026   0.000074   0.002076
              19         20         21         22         23         24
     1  C    0.000005   0.000002  -0.000000   0.000000  -0.000000   0.000000
     2  C    0.000000  -0.000000   0.000000  -0.000000   0.000000  -0.000000
     3  O    0.000079  -0.000073   0.000000  -0.000004   0.000001   0.000000
     4  C   -0.000000  -0.000000  -0.000000  -0.000000  -0.000000  -0.000000
     5  H   -0.000000   0.000000   0.000000   0.000000  -0.000000  -0.000000
     6  H   -0.000000  -0.000000  -0.000000  -0.000000   0.000000   0.000000
     7  H    0.000005   0.000000   0.000000  -0.000000   0.000000  -0.000000
     8  H   -0.000000  -0.000000  -0.000000  -0.000000   0.000000   0.000000
     9  H    0.000000   0.000000   0.000000  -0.000000   0.000000   0.000000
    10  H   -0.000000  -0.000000  -0.000000  -0.000000   0.000000   0.000000
    11  Br  -0.000000   0.000000  -0.000000   0.000000  -0.000000   0.000000
    12  N   -0.005015   0.257862  -0.039767  -0.034990  -0.039028   0.003305
    13  C   -0.035714  -0.042284   0.003837  -0.004282  -0.002425  -0.000069
    14  C    0.376680  -0.003908   0.000228   0.001627  -0.001184   0.000002
    15  H    0.003837   0.002928  -0.000125   0.000021   0.000073   0.000002
    16  H   -0.001381  -0.008073  -0.000023  -0.000371   0.005557  -0.000003
    17  H   -0.027783   0.000012  -0.000002  -0.000068  -0.000051  -0.000000
    18  H   -0.029032  -0.000364  -0.000006  -0.000054   0.000068  -0.000000
    19  H    0.621621   0.001114   0.000001   0.001899   0.000420   0.000014
    20  C    0.001114   4.861996   0.366315   0.401492   0.395311  -0.026563
    21  C    0.000001   0.366315   4.925291  -0.035224  -0.037058   0.386720
    22  H    0.001899   0.401492  -0.035224   0.558726  -0.031764  -0.003800
    23  H    0.000420   0.395311  -0.037058  -0.031764   0.580584  -0.001642
    24  H    0.000014  -0.026563   0.386720  -0.003800  -0.001642   0.559611
    25  H    0.000009  -0.032303   0.391676  -0.003642   0.004407  -0.024280
    26  H   -0.000002  -0.031452   0.390877   0.004249  -0.005213  -0.026010
    27  C   -0.000114  -0.041663  -0.004912   0.004276  -0.006545   0.000166
    28  C    0.000015   0.004007   0.000209  -0.000152  -0.000064  -0.000004
    29  H   -0.000001  -0.007443   0.003469  -0.000161  -0.000056   0.000120
    30  H   -0.000002  -0.001575  -0.003241   0.000253   0.004411  -0.000035
    31  H    0.000000  -0.000047  -0.000009   0.000003  -0.000001  -0.000000
    32  H   -0.000019   0.000053  -0.000016   0.000004  -0.000001   0.000000
    33  H   -0.000002  -0.000175   0.000010  -0.000000  -0.000029   0.000000
    34  C   -0.000138  -0.038433  -0.001757  -0.008130   0.004614  -0.000052
    35  C   -0.001006  -0.002036  -0.005294   0.005136   0.000106   0.000062
    36  H   -0.000006  -0.004151   0.001407   0.000050  -0.000170   0.000024
    37  H    0.000022   0.002122   0.000050  -0.000036  -0.000074  -0.000001
    38  H    0.000020   0.000154   0.000066  -0.000034  -0.000005  -0.000001
    39  H   -0.000053   0.001103  -0.000720  -0.000380   0.000071   0.000106
    40  H    0.000216  -0.002373   0.000259   0.000349  -0.000013   0.000000
              25         26         27         28         29         30
     1  C   -0.000000   0.000000  -0.000005   0.000777  -0.000000   0.000000
     2  C    0.000000  -0.000000   0.000005  -0.000074  -0.000000  -0.000000
     3  O    0.000000  -0.000000   0.000417  -0.033581   0.000000  -0.000016
     4  C   -0.000000  -0.000000   0.000001  -0.000076  -0.000000  -0.000000
     5  H   -0.000000   0.000000   0.000008  -0.000544  -0.000000  -0.000000
     6  H    0.000000   0.000000  -0.000003  -0.000057   0.000000  -0.000000
     7  H   -0.000000   0.000000   0.000000   0.000003  -0.000000   0.000000
     8  H    0.000000  -0.000000   0.000000  -0.000002   0.000000   0.000000
     9  H    0.000000   0.000000  -0.000000   0.000001   0.000000   0.000000
    10  H    0.000000  -0.000000  -0.000001  -0.000083   0.000000  -0.000000
    11  Br   0.000000  -0.000000  -0.000000  -0.000010  -0.000000  -0.000000
    12  N   -0.003977  -0.003167   0.252732  -0.040248  -0.036392  -0.042695
    13  C    0.000023  -0.000086  -0.043997   0.001586   0.004084  -0.004917
    14  C   -0.000012  -0.000003   0.003927   0.000074  -0.000174  -0.000072
    15  H    0.000003  -0.000002  -0.006861   0.002667  -0.000035  -0.000136
    16  H   -0.000002  -0.000003  -0.001429  -0.002918   0.000178   0.003486
    17  H   -0.000000   0.000000  -0.000091   0.000017   0.000003  -0.000000
    18  H   -0.000001   0.000000   0.000048   0.000062   0.000006   0.000005
    19  H    0.000009  -0.000002  -0.000114   0.000015  -0.000001  -0.000002
    20  C   -0.032303  -0.031452  -0.041663   0.004007  -0.007443  -0.001575
    21  C    0.391676   0.390877  -0.004912   0.000209   0.003469  -0.003241
    22  H   -0.003642   0.004249   0.004276  -0.000152  -0.000161   0.000253
    23  H    0.004407  -0.005213  -0.006545  -0.000064  -0.000056   0.004411
    24  H   -0.024280  -0.026010   0.000166  -0.000004   0.000120  -0.000035
    25  H    0.557559  -0.028642  -0.001492  -0.000017   0.000459   0.000150
    26  H   -0.028642   0.569516   0.002704   0.000033  -0.000902   0.001203
    27  C   -0.001492   0.002704   4.883096   0.356946   0.398644   0.392614
    28  C   -0.000017   0.000033   0.356946   5.067487  -0.032461  -0.034227
    29  H    0.000459  -0.000902   0.398644  -0.032461   0.581350  -0.034746
    30  H    0.000150   0.001203   0.392614  -0.034227  -0.034746   0.600003
    31  H   -0.000000   0.000011  -0.028172   0.368862  -0.008000   0.001239
    32  H   -0.000000   0.000004  -0.023882   0.312808  -0.000802   0.002803
    33  H   -0.000000  -0.000004  -0.033980   0.392297   0.004399  -0.008999
    34  C    0.004254  -0.000505  -0.036568  -0.002612  -0.008092   0.004327
    35  C   -0.001109   0.000178   0.003065   0.000130   0.000150  -0.000211
    36  H    0.000056  -0.000118  -0.006030  -0.000600   0.004795   0.000557
    37  H    0.000046  -0.000005  -0.002248   0.001228   0.000175  -0.000117
    38  H   -0.000037   0.000000  -0.000071   0.000002  -0.000012   0.000003
    39  H    0.002345  -0.000011  -0.000065   0.000004   0.000004  -0.000005
    40  H   -0.000025  -0.000008  -0.000016  -0.000012   0.000003   0.000007
              31         32         33         34         35         36
     1  C   -0.000005  -0.002924   0.000029   0.003824  -0.000043  -0.000046
     2  C    0.000003  -0.000942  -0.000008   0.000105  -0.000004   0.000000
     3  O    0.000447   0.066636   0.000058  -0.072258   0.000942   0.000793
     4  C    0.000001   0.000556   0.000001   0.000638   0.000010  -0.000011
     5  H    0.000052   0.002474   0.000011   0.000089  -0.000000  -0.000004
     6  H   -0.000001   0.000290   0.000001  -0.000595   0.000002   0.000024
     7  H   -0.000000  -0.000025  -0.000000   0.000084   0.000010   0.000002
     8  H    0.000000   0.000007   0.000000  -0.001256   0.000164   0.000009
     9  H   -0.000000  -0.000014  -0.000000  -0.000015   0.000002   0.000000
    10  H   -0.000000   0.000261   0.000005  -0.000385   0.000005   0.000002
    11  Br   0.000000   0.000094   0.000000  -0.000001   0.000000  -0.000000
    12  N    0.003419  -0.002450  -0.000985   0.214656  -0.034672  -0.041447
    13  C    0.000327  -0.004467   0.001497  -0.053585  -0.002090   0.003885
    14  C   -0.000007   0.000178  -0.000008  -0.001575  -0.002925  -0.000111
    15  H    0.000285  -0.002659  -0.001256   0.012574  -0.000505   0.000165
    16  H   -0.000034  -0.000248   0.000473   0.004672  -0.000215  -0.000222
    17  H   -0.000000  -0.000000   0.000003  -0.000096   0.000259   0.000003
    18  H   -0.000001  -0.000205   0.000002   0.002606  -0.005008   0.000025
    19  H    0.000000  -0.000019  -0.000002  -0.000138  -0.001006  -0.000006
    20  C   -0.000047   0.000053  -0.000175  -0.038433  -0.002036  -0.004151
    21  C   -0.000009  -0.000016   0.000010  -0.001757  -0.005294   0.001407
    22  H    0.000003   0.000004  -0.000000  -0.008130   0.005136   0.000050
    23  H   -0.000001  -0.000001  -0.000029   0.004614   0.000106  -0.000170
    24  H   -0.000000   0.000000   0.000000  -0.000052   0.000062   0.000024
    25  H   -0.000000  -0.000000  -0.000000   0.004254  -0.001109   0.000056
    26  H    0.000011   0.000004  -0.000004  -0.000505   0.000178  -0.000118
    27  C   -0.028172  -0.023882  -0.033980  -0.036568   0.003065  -0.006030
    28  C    0.368862   0.312808   0.392297  -0.002612   0.000130  -0.000600
    29  H   -0.008000  -0.000802   0.004399  -0.008092   0.000150   0.004795
    30  H    0.001239   0.002803  -0.008999   0.004327  -0.000211   0.000557
    31  H    0.598717  -0.010950  -0.030810  -0.000019  -0.000001  -0.000091
    32  H   -0.010950   0.488708  -0.021121   0.001680   0.000101  -0.000507
    33  H   -0.030810  -0.021121   0.582674  -0.000071  -0.000004  -0.000006
    34  C   -0.000019   0.001680  -0.000071   5.189692   0.365330   0.381845
    35  C   -0.000001   0.000101  -0.000004   0.365330   4.919268  -0.044224
    36  H   -0.000091  -0.000507  -0.000006   0.381845  -0.044224   0.615863
    37  H   -0.000073  -0.001240   0.000108   0.224600  -0.016039  -0.012780
    38  H   -0.000000   0.000012  -0.000000  -0.027886   0.387847  -0.002213
    39  H   -0.000000  -0.000009   0.000000  -0.035120   0.382103  -0.005877
    40  H    0.000000   0.000014  -0.000000  -0.032353   0.390036   0.004785
              37         38         39         40
     1  C   -0.009516  -0.000006   0.000002  -0.000035
     2  C   -0.001156  -0.000006  -0.000000  -0.000000
     3  O    0.124092   0.000164  -0.000017   0.000103
     4  C   -0.003781   0.000013   0.000002   0.000019
     5  H   -0.000453  -0.000000  -0.000000  -0.000000
     6  H    0.002315   0.000019  -0.000000   0.000000
     7  H   -0.000299  -0.000016   0.000001   0.000017
     8  H    0.003226   0.000672  -0.000001   0.000047
     9  H    0.000115   0.000000  -0.000000   0.000000
    10  H    0.002068   0.000002  -0.000000   0.000002
    11  Br   0.000026   0.000000  -0.000000   0.000000
    12  N   -0.023618   0.003246  -0.003959  -0.001959
    13  C    0.015576   0.000030   0.000020  -0.000029
    14  C   -0.002376   0.000010  -0.000006   0.002542
    15  H   -0.018551  -0.000028   0.000001   0.000012
    16  H    0.000220   0.000004   0.000012  -0.000026
    17  H   -0.000012  -0.000004  -0.000007   0.000074
    18  H    0.001069   0.000271   0.000090   0.002076
    19  H    0.000022   0.000020  -0.000053   0.000216
    20  C    0.002122   0.000154   0.001103  -0.002373
    21  C    0.000050   0.000066  -0.000720   0.000259
    22  H   -0.000036  -0.000034  -0.000380   0.000349
    23  H   -0.000074  -0.000005   0.000071  -0.000013
    24  H   -0.000001  -0.000001   0.000106   0.000000
    25  H    0.000046  -0.000037   0.002345  -0.000025
    26  H   -0.000005   0.000000  -0.000011  -0.000008
    27  C   -0.002248  -0.000071  -0.000065  -0.000016
    28  C    0.001228   0.000002   0.000004  -0.000012
    29  H    0.000175  -0.000012   0.000004   0.000003
    30  H   -0.000117   0.000003  -0.000005   0.000007
    31  H   -0.000073  -0.000000  -0.000000   0.000000
    32  H   -0.001240   0.000012  -0.000009   0.000014
    33  H    0.000108  -0.000000   0.000000  -0.000000
    34  C    0.224600  -0.027886  -0.035120  -0.032353
    35  C   -0.016039   0.387847   0.382103   0.390036
    36  H   -0.012780  -0.002213  -0.005877   0.004785
    37  H    0.496157  -0.001897   0.002520  -0.002553
    38  H   -0.001897   0.550300  -0.028396  -0.021371
    39  H    0.002520  -0.028396   0.624467  -0.033923
    40  H   -0.002553  -0.021371  -0.033923   0.568205
 Mulliken charges:
               1
     1  C    0.248917
     2  C   -0.174444
     3  O   -0.671158
     4  C   -0.311104
     5  H    0.124941
     6  H    0.111828
     7  H    0.071081
     8  H    0.062801
     9  H    0.093022
    10  H    0.024224
    11  Br  -0.257113
    12  N   -0.377886
    13  C   -0.075782
    14  C   -0.345529
    15  H    0.220903
    16  H    0.099101
    17  H    0.128408
    18  H    0.159818
    19  H    0.094311
    20  C   -0.051555
    21  C   -0.342258
    22  H    0.145006
    23  H    0.129702
    24  H    0.132326
    25  H    0.134552
    26  H    0.127359
    27  C   -0.060507
    28  C   -0.361473
    29  H    0.131437
    30  H    0.119933
    31  H    0.104857
    32  H    0.195800
    33  H    0.115890
    34  C   -0.094087
    35  C   -0.339519
    36  H    0.104326
    37  H    0.221094
    38  H    0.139150
    39  H    0.095698
    40  H    0.125931
 Sum of Mulliken charges =  -0.00000
 Mulliken charges with hydrogens summed into heavy atoms:
               1
     1  C    0.273141
     2  C    0.062326
     3  O   -0.671158
     4  C   -0.084201
    11  Br  -0.257113
    12  N   -0.377886
    13  C    0.244222
    14  C    0.037007
    20  C    0.223152
    21  C    0.051978
    27  C    0.190863
    28  C    0.055075
    34  C    0.231333
    35  C    0.021260
 APT charges:
               1
     1  C   -0.269284
     2  C   -0.540034
     3  O   -0.726363
     4  C   -0.977226
     5  H    0.366242
     6  H    0.274348
     7  H    0.315530
     8  H    0.182906
     9  H    0.519025
    10  H    0.322888
    11  Br  -0.211115
    12  N   -0.045068
    13  C   -0.445666
    14  C   -1.107136
    15  H    0.027720
    16  H    0.583524
    17  H    0.524908
    18  H    0.026995
    19  H    0.643599
    20  C   -1.066144
    21  C   -1.464223
    22  H    0.396569
    23  H    0.629862
    24  H    0.995222
    25  H    0.103949
    26  H    0.473613
    27  C   -1.079615
    28  C   -0.838360
    29  H    0.471685
    30  H    0.705572
    31  H    0.518846
    32  H   -0.044122
    33  H    0.426998
    34  C   -0.216520
    35  C   -1.178885
    36  H    0.392391
    37  H    0.057282
    38  H    0.267083
    39  H    0.683767
    40  H    0.299238
 Sum of APT charges =  -0.00000
 APT charges with hydrogens summed into heavy atoms:
               1
     1  C    0.053604
     2  C    0.100557
     3  O   -0.726363
     4  C    0.040234
    11  Br  -0.211115
    12  N   -0.045068
    13  C    0.165578
    14  C    0.088366
    20  C   -0.039713
    21  C    0.108561
    27  C    0.097641
    28  C    0.063362
    34  C    0.233152
    35  C    0.071204
 Electronic spatial extent (au):  <R**2>=           6636.4637
 Charge=             -0.0000 electrons
 Dipole moment (field-independent basis, Debye):
    X=              1.6267    Y=            -11.6540    Z=             -5.9367  Tot=             13.1798
 Quadrupole moment (field-independent basis, Debye-Ang):
   XX=           -100.6108   YY=            -91.2255   ZZ=            -99.8414
   XY=             -1.9908   XZ=             -1.0375   YZ=              3.8350
 Traceless Quadrupole moment (field-independent basis, Debye-Ang):
   XX=             -3.3849   YY=              6.0004   ZZ=             -2.6155
   XY=             -1.9908   XZ=             -1.0375   YZ=              3.8350
 Octapole moment (field-independent basis, Debye-Ang**2):
  XXX=              8.3162  YYY=             27.2396  ZZZ=             81.7530  XYY=              8.7715
  XXY=             46.0106  XXZ=             31.2261  XZZ=              6.4226  YZZ=             11.4928
  YYZ=            -29.4350  XYZ=              0.1111
 Hexadecapole moment (field-independent basis, Debye-Ang**3):
 XXXX=           -746.9011 YYYY=          -4734.7627 ZZZZ=          -2174.1286 XXXY=            134.6007
 XXXZ=             -5.4423 YYYX=             76.9782 YYYZ=          -1007.6704 ZZZX=            -20.2287
 ZZZY=          -1067.3752 XXYY=           -938.6638 XXZZ=           -489.4276 YYZZ=          -1148.5684
 XXYZ=           -364.2809 YYXZ=            -31.8261 ZZXY=             26.4475
 N-N= 1.321855373774D+03 E-N=-1.010502793768D+04  KE= 3.132086561388D+03
  Exact polarizability:   0.000   0.000   0.000   0.000   0.000   0.000
 Approx polarizability: 160.870  -1.266 189.987  -0.232  13.931 164.978

 This type of calculation cannot be archived.


 ALMOST ALL THE CHEMICAL PROCESSES WHICH OCCUR IN NATURE,
 WHETHER IN ANIMAL OR VEGETABLE ORGANISMS,
 OR IN THE NON-LIVING SURFACE OF THE EARTH ... 
 TAKE PLACE BETWEEN SUBSTANCES IN SOLUTION

                                    -- W. OSTWALD, 1890
 Job cpu time:       2 days 19 hours 18 minutes 42.1 seconds.
 Elapsed time:       0 days  1 hours  7 minutes 49.5 seconds.
 File lengths (MBytes):  RWF=    615 Int=      0 D2E=      0 Chk=     16 Scr=      2
 Normal termination of Gaussian 16 at Tue Mar 14 10:50:04 2023.
