 Entering Gaussian System, Link 0=g16
 Input=TEAB_opt_freq_6_31G.com
 Output=TEAB_opt_freq_6_31G.log
 Initial command:
 /apps/commercial/G16/g16.linda/l1.exe "/scratch/x1711a05/Gau-7617.inp" -scrdir="/scratch/x1711a05/"
 Default linda workers: node5782
 Entering Link 1 = /apps/commercial/G16/g16.linda/l1.exe PID=      7618.
  
 Copyright (c) 1988,1990,1992,1993,1995,1998,2003,2009,2016,
            Gaussian, Inc.  All Rights Reserved.
  
 This is part of the Gaussian(R) 16 program.  It is based on
 the Gaussian(R) 09 system (copyright 2009, Gaussian, Inc.),
 the Gaussian(R) 03 system (copyright 2003, Gaussian, Inc.),
 the Gaussian(R) 98 system (copyright 1998, Gaussian, Inc.),
 the Gaussian(R) 94 system (copyright 1995, Gaussian, Inc.),
 the Gaussian 92(TM) system (copyright 1992, Gaussian, Inc.),
 the Gaussian 90(TM) system (copyright 1990, Gaussian, Inc.),
 the Gaussian 88(TM) system (copyright 1988, Gaussian, Inc.),
 the Gaussian 86(TM) system (copyright 1986, Carnegie Mellon
 University), and the Gaussian 82(TM) system (copyright 1983,
 Carnegie Mellon University). Gaussian is a federally registered
 trademark of Gaussian, Inc.
  
 This software contains proprietary and confidential information,
 including trade secrets, belonging to Gaussian, Inc.
  
 This software is provided under written license and may be
 used, copied, transmitted, or stored only in accord with that
 written license.
  
 The following legend is applicable only to US Government
 contracts under FAR:
  
                    RESTRICTED RIGHTS LEGEND
  
 Use, reproduction and disclosure by the US Government is
 subject to restrictions as set forth in subparagraphs (a)
 and (c) of the Commercial Computer Software - Restricted
 Rights clause in FAR 52.227-19.
  
 Gaussian, Inc.
 340 Quinnipiac St., Bldg. 40, Wallingford CT 06492
  
  
 ---------------------------------------------------------------
 Warning -- This program may not be used in any manner that
 competes with the business of Gaussian, Inc. or will provide
 assistance to any competitor of Gaussian, Inc.  The licensee
 of this program is prohibited from giving any competitor of
 Gaussian, Inc. access to this program.  By using this program,
 the user acknowledges that Gaussian, Inc. is engaged in the
 business of creating and licensing software in the field of
 computational chemistry and represents and warrants to the
 licensee that it is not a competitor of Gaussian, Inc. and that
 it will not use this program in any manner prohibited above.
 ---------------------------------------------------------------
  

 Cite this work as:
 Gaussian 16, Revision A.03,
 M. J. Frisch, G. W. Trucks, H. B. Schlegel, G. E. Scuseria, 
 M. A. Robb, J. R. Cheeseman, G. Scalmani, V. Barone, 
 G. A. Petersson, H. Nakatsuji, X. Li, M. Caricato, A. V. Marenich, 
 J. Bloino, B. G. Janesko, R. Gomperts, B. Mennucci, H. P. Hratchian, 
 J. V. Ortiz, A. F. Izmaylov, J. L. Sonnenberg, D. Williams-Young, 
 F. Ding, F. Lipparini, F. Egidi, J. Goings, B. Peng, A. Petrone, 
 T. Henderson, D. Ranasinghe, V. G. Zakrzewski, J. Gao, N. Rega, 
 G. Zheng, W. Liang, M. Hada, M. Ehara, K. Toyota, R. Fukuda, 
 J. Hasegawa, M. Ishida, T. Nakajima, Y. Honda, O. Kitao, H. Nakai, 
 T. Vreven, K. Throssell, J. A. Montgomery, Jr., J. E. Peralta, 
 F. Ogliaro, M. J. Bearpark, J. J. Heyd, E. N. Brothers, K. N. Kudin, 
 V. N. Staroverov, T. A. Keith, R. Kobayashi, J. Normand, 
 K. Raghavachari, A. P. Rendell, J. C. Burant, S. S. Iyengar, 
 J. Tomasi, M. Cossi, J. M. Millam, M. Klene, C. Adamo, R. Cammi, 
 J. W. Ochterski, R. L. Martin, K. Morokuma, O. Farkas, 
 J. B. Foresman, and D. J. Fox, Gaussian, Inc., Wallingford CT, 2016.
 
 ******************************************
 Gaussian 16:  ES64L-G16RevA.03 25-Dec-2016
                22-Aug-2019 
 ******************************************
 %mem=64GB
 %nprocshared=64
 Will use up to   64 processors via shared memory.
 %chk=TEAB_opt_freq_6_31G.chk
 SetLPE:    new flags="-opt 'Tsnet.Node.lindarsharg: ssh'  -nodelist 'node5782' -env GAUSS_MDEF=8589934592 -env GAUSS_EXEDIR="/apps/commercial/G16/g16.linda""
 Will use up to    1 processors via Linda.
 ------------------------------------------------------------------
 # opt=(calcfc,tight) freq cam-b3lyp/gen nosymm pseudo=read scf=xqc
 ------------------------------------------------------------------
 1/7=10,10=4,18=20,19=15,26=3,38=1/1,3;
 2/9=110,12=2,15=1,17=6,18=5,40=1/2;
 3/5=7,11=2,16=1,17=8,25=1,30=1,71=2,74=-40,140=1/1,2,3;
 4//1;
 5/5=2,8=3,13=1,38=5/2,8;
 8/6=4,10=90,11=11/1;
 11/6=1,8=1,9=11,15=111,16=1,31=1/1,2,10;
 10/6=1,13=1,31=1/2;
 6/7=2,8=2,9=2,10=2,28=1/1;
 7/10=1,18=20,25=1,30=1/1,2,3,16;
 1/7=10,10=4,18=20,19=15,26=3/3(2);
 2/9=110,15=1/2;
 99//99;
 2/9=110,15=1/2;
 3/5=7,6=1,11=2,16=1,17=8,25=1,30=1,71=1,74=-40,82=7/1,2,3;
 4/5=5,16=3,69=1/1;
 5/5=2,8=3,13=1,38=5/2,8;
 7/30=1/1,2,3,16;
 1/7=10,18=20,19=15,26=3/3(-5);
 2/9=110,15=1/2;
 6/7=2,8=2,9=2,10=2,19=2,28=1/1;
 99/9=1/99;
 -------------------
 TEAB_opt_freq_6_31G
 -------------------
 Symbolic Z-matrix:
 Charge =  0 Multiplicity = 1
 N                    -0.13924   0.60223   0.12229 
 C                    -1.06512   1.39413   1.04951 
 C                    -2.47764   1.66218   0.55646 
 H                    -0.54482   2.34391   1.2456 
 H                    -1.11476   0.8074    1.96946 
 H                    -2.9423    2.30632   1.30694 
 H                    -2.50902   2.2057   -0.38598 
 H                    -3.09241   0.7629    0.47282 
 C                    -0.9146   -0.51332  -0.53045 
 C                    -0.11224  -1.47695  -1.39023 
 H                    -1.69155  -0.04488  -1.13082 
 H                    -1.4082   -1.05023   0.28358 
 H                    -0.80611  -2.22193  -1.78708 
 H                     0.35606  -0.9847   -2.244 
 H                     0.65426  -2.01387  -0.8295 
 C                     0.96174  -0.0075    0.97985 
 C                     1.59425   0.91977   2.0084 
 H                     1.71583  -0.36877   0.28064 
 H                     0.51388  -0.87787   1.46759 
 H                     2.53562   0.46507   2.32703 
 H                     1.79548   1.9268    1.62835 
 H                     0.96665   1.03501   2.89299 
 C                     0.54352   1.49357  -0.91029 
 C                    -0.35928   2.25909  -1.85709 
 H                     1.22515   0.83567  -1.45049 
 H                     1.10603   2.24152  -0.34013 
 H                     0.28647   2.68272  -2.6302 
 H                    -1.11708   1.65198  -2.35997 
 H                    -0.8116    3.10588  -1.33913 
 Br                    0.80928   4.35093   0.92326 
 
 Add virtual bond connecting atoms Br30       and H4         Dist= 4.62D+00.
 Add virtual bond connecting atoms Br30       and H26        Dist= 4.68D+00.

 GradGradGradGradGradGradGradGradGradGradGradGradGradGradGradGradGradGrad
 Berny optimization.
 Initialization pass.
                           ----------------------------
                           !    Initial Parameters    !
                           ! (Angstroms and Degrees)  !
 --------------------------                            --------------------------
 ! Name  Definition              Value          Derivative Info.                !
 --------------------------------------------------------------------------------
 ! R1    R(1,2)                  1.531          calculate D2E/DX2 analytically  !
 ! R2    R(1,9)                  1.5072         calculate D2E/DX2 analytically  !
 ! R3    R(1,16)                 1.5229         calculate D2E/DX2 analytically  !
 ! R4    R(1,23)                 1.5254         calculate D2E/DX2 analytically  !
 ! R5    R(2,3)                  1.5199         calculate D2E/DX2 analytically  !
 ! R6    R(2,4)                  1.1006         calculate D2E/DX2 analytically  !
 ! R7    R(2,5)                  1.0923         calculate D2E/DX2 analytically  !
 ! R8    R(3,6)                  1.0927         calculate D2E/DX2 analytically  !
 ! R9    R(3,7)                  1.0884         calculate D2E/DX2 analytically  !
 ! R10   R(3,8)                  1.0925         calculate D2E/DX2 analytically  !
 ! R11   R(4,30)                 2.4425         calculate D2E/DX2 analytically  !
 ! R12   R(9,10)                 1.5204         calculate D2E/DX2 analytically  !
 ! R13   R(9,11)                 1.0879         calculate D2E/DX2 analytically  !
 ! R14   R(9,12)                 1.093          calculate D2E/DX2 analytically  !
 ! R15   R(10,13)                1.0927         calculate D2E/DX2 analytically  !
 ! R16   R(10,14)                1.0911         calculate D2E/DX2 analytically  !
 ! R17   R(10,15)                1.091          calculate D2E/DX2 analytically  !
 ! R18   R(16,17)                1.5224         calculate D2E/DX2 analytically  !
 ! R19   R(16,18)                1.09           calculate D2E/DX2 analytically  !
 ! R20   R(16,19)                1.0936         calculate D2E/DX2 analytically  !
 ! R21   R(17,20)                1.0929         calculate D2E/DX2 analytically  !
 ! R22   R(17,21)                1.095          calculate D2E/DX2 analytically  !
 ! R23   R(17,22)                1.0907         calculate D2E/DX2 analytically  !
 ! R24   R(23,24)                1.5157         calculate D2E/DX2 analytically  !
 ! R25   R(23,25)                1.0905         calculate D2E/DX2 analytically  !
 ! R26   R(23,26)                1.0959         calculate D2E/DX2 analytically  !
 ! R27   R(24,27)                1.0928         calculate D2E/DX2 analytically  !
 ! R28   R(24,28)                1.0935         calculate D2E/DX2 analytically  !
 ! R29   R(24,29)                1.0908         calculate D2E/DX2 analytically  !
 ! R30   R(26,30)                2.4767         calculate D2E/DX2 analytically  !
 ! A1    A(2,1,9)              109.5121         calculate D2E/DX2 analytically  !
 ! A2    A(2,1,16)             107.6528         calculate D2E/DX2 analytically  !
 ! A3    A(2,1,23)             112.2342         calculate D2E/DX2 analytically  !
 ! A4    A(9,1,16)             108.6291         calculate D2E/DX2 analytically  !
 ! A5    A(9,1,23)             111.6895         calculate D2E/DX2 analytically  !
 ! A6    A(16,1,23)            106.9499         calculate D2E/DX2 analytically  !
 ! A7    A(1,2,3)              117.1784         calculate D2E/DX2 analytically  !
 ! A8    A(1,2,4)              105.568          calculate D2E/DX2 analytically  !
 ! A9    A(1,2,5)              105.0534         calculate D2E/DX2 analytically  !
 ! A10   A(3,2,4)              110.1789         calculate D2E/DX2 analytically  !
 ! A11   A(3,2,5)              109.0087         calculate D2E/DX2 analytically  !
 ! A12   A(4,2,5)              109.5725         calculate D2E/DX2 analytically  !
 ! A13   A(2,3,6)              106.0417         calculate D2E/DX2 analytically  !
 ! A14   A(2,3,7)              113.313          calculate D2E/DX2 analytically  !
 ! A15   A(2,3,8)              113.7413         calculate D2E/DX2 analytically  !
 ! A16   A(6,3,7)              106.7426         calculate D2E/DX2 analytically  !
 ! A17   A(6,3,8)              107.3682         calculate D2E/DX2 analytically  !
 ! A18   A(7,3,8)              109.1801         calculate D2E/DX2 analytically  !
 ! A19   A(2,4,30)             161.3911         calculate D2E/DX2 analytically  !
 ! A20   A(1,9,10)             116.265          calculate D2E/DX2 analytically  !
 ! A21   A(1,9,11)             106.72           calculate D2E/DX2 analytically  !
 ! A22   A(1,9,12)             105.8647         calculate D2E/DX2 analytically  !
 ! A23   A(10,9,11)            109.7385         calculate D2E/DX2 analytically  !
 ! A24   A(10,9,12)            110.3746         calculate D2E/DX2 analytically  !
 ! A25   A(11,9,12)            107.4585         calculate D2E/DX2 analytically  !
 ! A26   A(9,10,13)            107.6011         calculate D2E/DX2 analytically  !
 ! A27   A(9,10,14)            112.5231         calculate D2E/DX2 analytically  !
 ! A28   A(9,10,15)            113.0824         calculate D2E/DX2 analytically  !
 ! A29   A(13,10,14)           107.2146         calculate D2E/DX2 analytically  !
 ! A30   A(13,10,15)           107.2938         calculate D2E/DX2 analytically  !
 ! A31   A(14,10,15)           108.8232         calculate D2E/DX2 analytically  !
 ! A32   A(1,16,17)            115.9077         calculate D2E/DX2 analytically  !
 ! A33   A(1,16,18)            105.7616         calculate D2E/DX2 analytically  !
 ! A34   A(1,16,19)            105.8853         calculate D2E/DX2 analytically  !
 ! A35   A(17,16,18)           110.3546         calculate D2E/DX2 analytically  !
 ! A36   A(17,16,19)           110.7055         calculate D2E/DX2 analytically  !
 ! A37   A(18,16,19)           107.7961         calculate D2E/DX2 analytically  !
 ! A38   A(16,17,20)           107.5426         calculate D2E/DX2 analytically  !
 ! A39   A(16,17,21)           113.7035         calculate D2E/DX2 analytically  !
 ! A40   A(16,17,22)           111.9142         calculate D2E/DX2 analytically  !
 ! A41   A(20,17,21)           108.9969         calculate D2E/DX2 analytically  !
 ! A42   A(20,17,22)           107.6455         calculate D2E/DX2 analytically  !
 ! A43   A(21,17,22)           106.8614         calculate D2E/DX2 analytically  !
 ! A44   A(1,23,24)            116.8306         calculate D2E/DX2 analytically  !
 ! A45   A(1,23,25)            105.222          calculate D2E/DX2 analytically  !
 ! A46   A(1,23,26)            106.0437         calculate D2E/DX2 analytically  !
 ! A47   A(24,23,25)           111.565          calculate D2E/DX2 analytically  !
 ! A48   A(24,23,26)           106.619          calculate D2E/DX2 analytically  !
 ! A49   A(25,23,26)           110.4046         calculate D2E/DX2 analytically  !
 ! A50   A(23,24,27)           106.6037         calculate D2E/DX2 analytically  !
 ! A51   A(23,24,28)           114.8106         calculate D2E/DX2 analytically  !
 ! A52   A(23,24,29)           110.0253         calculate D2E/DX2 analytically  !
 ! A53   A(27,24,28)           107.4204         calculate D2E/DX2 analytically  !
 ! A54   A(27,24,29)           106.2619         calculate D2E/DX2 analytically  !
 ! A55   A(28,24,29)           111.2228         calculate D2E/DX2 analytically  !
 ! A56   A(23,26,30)           141.7411         calculate D2E/DX2 analytically  !
 ! A57   A(4,30,26)             55.5197         calculate D2E/DX2 analytically  !
 ! D1    D(9,1,2,3)            -40.1831         calculate D2E/DX2 analytically  !
 ! D2    D(9,1,2,4)           -163.2478         calculate D2E/DX2 analytically  !
 ! D3    D(9,1,2,5)             80.9641         calculate D2E/DX2 analytically  !
 ! D4    D(16,1,2,3)          -158.1148         calculate D2E/DX2 analytically  !
 ! D5    D(16,1,2,4)            78.8206         calculate D2E/DX2 analytically  !
 ! D6    D(16,1,2,5)           -36.9675         calculate D2E/DX2 analytically  !
 ! D7    D(23,1,2,3)            84.4589         calculate D2E/DX2 analytically  !
 ! D8    D(23,1,2,4)           -38.6057         calculate D2E/DX2 analytically  !
 ! D9    D(23,1,2,5)          -154.3938         calculate D2E/DX2 analytically  !
 ! D10   D(2,1,9,10)          -174.6912         calculate D2E/DX2 analytically  !
 ! D11   D(2,1,9,11)            62.525          calculate D2E/DX2 analytically  !
 ! D12   D(2,1,9,12)           -51.7447         calculate D2E/DX2 analytically  !
 ! D13   D(16,1,9,10)          -57.3707         calculate D2E/DX2 analytically  !
 ! D14   D(16,1,9,11)          179.8455         calculate D2E/DX2 analytically  !
 ! D15   D(16,1,9,12)           65.5757         calculate D2E/DX2 analytically  !
 ! D16   D(23,1,9,10)           60.3508         calculate D2E/DX2 analytically  !
 ! D17   D(23,1,9,11)          -62.433          calculate D2E/DX2 analytically  !
 ! D18   D(23,1,9,12)         -176.7028         calculate D2E/DX2 analytically  !
 ! D19   D(2,1,16,17)          -45.0623         calculate D2E/DX2 analytically  !
 ! D20   D(2,1,16,18)         -167.6709         calculate D2E/DX2 analytically  !
 ! D21   D(2,1,16,19)           78.0927         calculate D2E/DX2 analytically  !
 ! D22   D(9,1,16,17)         -163.5628         calculate D2E/DX2 analytically  !
 ! D23   D(9,1,16,18)           73.8285         calculate D2E/DX2 analytically  !
 ! D24   D(9,1,16,19)          -40.4079         calculate D2E/DX2 analytically  !
 ! D25   D(23,1,16,17)          75.7425         calculate D2E/DX2 analytically  !
 ! D26   D(23,1,16,18)         -46.8661         calculate D2E/DX2 analytically  !
 ! D27   D(23,1,16,19)        -161.1025         calculate D2E/DX2 analytically  !
 ! D28   D(2,1,23,24)          -59.9264         calculate D2E/DX2 analytically  !
 ! D29   D(2,1,23,25)          175.7053         calculate D2E/DX2 analytically  !
 ! D30   D(2,1,23,26)           58.6908         calculate D2E/DX2 analytically  !
 ! D31   D(9,1,23,24)           63.5037         calculate D2E/DX2 analytically  !
 ! D32   D(9,1,23,25)          -60.8646         calculate D2E/DX2 analytically  !
 ! D33   D(9,1,23,26)         -177.8791         calculate D2E/DX2 analytically  !
 ! D34   D(16,1,23,24)        -177.7709         calculate D2E/DX2 analytically  !
 ! D35   D(16,1,23,25)          57.8608         calculate D2E/DX2 analytically  !
 ! D36   D(16,1,23,26)         -59.1537         calculate D2E/DX2 analytically  !
 ! D37   D(1,2,3,6)           -175.0509         calculate D2E/DX2 analytically  !
 ! D38   D(1,2,3,7)            -58.2879         calculate D2E/DX2 analytically  !
 ! D39   D(1,2,3,8)             67.188          calculate D2E/DX2 analytically  !
 ! D40   D(4,2,3,6)            -54.379          calculate D2E/DX2 analytically  !
 ! D41   D(4,2,3,7)             62.384          calculate D2E/DX2 analytically  !
 ! D42   D(4,2,3,8)           -172.1402         calculate D2E/DX2 analytically  !
 ! D43   D(5,2,3,6)             65.8924         calculate D2E/DX2 analytically  !
 ! D44   D(5,2,3,7)           -177.3446         calculate D2E/DX2 analytically  !
 ! D45   D(5,2,3,8)            -51.8688         calculate D2E/DX2 analytically  !
 ! D46   D(1,2,4,30)            37.3021         calculate D2E/DX2 analytically  !
 ! D47   D(3,2,4,30)           -90.1108         calculate D2E/DX2 analytically  !
 ! D48   D(5,2,4,30)           149.9582         calculate D2E/DX2 analytically  !
 ! D49   D(2,4,30,26)          -27.7713         calculate D2E/DX2 analytically  !
 ! D50   D(1,9,10,13)          179.8383         calculate D2E/DX2 analytically  !
 ! D51   D(1,9,10,14)          -62.2779         calculate D2E/DX2 analytically  !
 ! D52   D(1,9,10,15)           61.5304         calculate D2E/DX2 analytically  !
 ! D53   D(11,9,10,13)         -58.9699         calculate D2E/DX2 analytically  !
 ! D54   D(11,9,10,14)          58.9139         calculate D2E/DX2 analytically  !
 ! D55   D(11,9,10,15)        -177.2778         calculate D2E/DX2 analytically  !
 ! D56   D(12,9,10,13)          59.2773         calculate D2E/DX2 analytically  !
 ! D57   D(12,9,10,14)         177.161          calculate D2E/DX2 analytically  !
 ! D58   D(12,9,10,15)         -59.0307         calculate D2E/DX2 analytically  !
 ! D59   D(1,16,17,20)        -163.3563         calculate D2E/DX2 analytically  !
 ! D60   D(1,16,17,21)         -42.5833         calculate D2E/DX2 analytically  !
 ! D61   D(1,16,17,22)          78.6198         calculate D2E/DX2 analytically  !
 ! D62   D(18,16,17,20)        -43.2037         calculate D2E/DX2 analytically  !
 ! D63   D(18,16,17,21)         77.5692         calculate D2E/DX2 analytically  !
 ! D64   D(18,16,17,22)       -161.2277         calculate D2E/DX2 analytically  !
 ! D65   D(19,16,17,20)         76.053          calculate D2E/DX2 analytically  !
 ! D66   D(19,16,17,21)       -163.1741         calculate D2E/DX2 analytically  !
 ! D67   D(19,16,17,22)        -41.971          calculate D2E/DX2 analytically  !
 ! D68   D(1,23,24,27)        -169.5479         calculate D2E/DX2 analytically  !
 ! D69   D(1,23,24,28)         -50.7304         calculate D2E/DX2 analytically  !
 ! D70   D(1,23,24,29)          75.6368         calculate D2E/DX2 analytically  !
 ! D71   D(25,23,24,27)        -48.4643         calculate D2E/DX2 analytically  !
 ! D72   D(25,23,24,28)         70.3532         calculate D2E/DX2 analytically  !
 ! D73   D(25,23,24,29)       -163.2796         calculate D2E/DX2 analytically  !
 ! D74   D(26,23,24,27)         72.1459         calculate D2E/DX2 analytically  !
 ! D75   D(26,23,24,28)       -169.0367         calculate D2E/DX2 analytically  !
 ! D76   D(26,23,24,29)        -42.6694         calculate D2E/DX2 analytically  !
 ! D77   D(1,23,26,30)         -78.5367         calculate D2E/DX2 analytically  !
 ! D78   D(24,23,26,30)         46.6297         calculate D2E/DX2 analytically  !
 ! D79   D(25,23,26,30)        167.9812         calculate D2E/DX2 analytically  !
 ! D80   D(23,26,30,4)          49.3943         calculate D2E/DX2 analytically  !
 --------------------------------------------------------------------------------
 Trust Radius=3.00D-01 FncErr=1.00D-07 GrdErr=1.00D-06 EigMax=2.50D+02 EigMin=1.00D-04
 Number of steps in this run=    177 maximum allowed number of steps=    180.
 GradGradGradGradGradGradGradGradGradGradGradGradGradGradGradGradGradGrad

                          Input orientation:                          
 ---------------------------------------------------------------------
 Center     Atomic      Atomic             Coordinates (Angstroms)
 Number     Number       Type             X           Y           Z
 ---------------------------------------------------------------------
      1          7           0       -0.139242    0.602228    0.122294
      2          6           0       -1.065116    1.394134    1.049512
      3          6           0       -2.477644    1.662183    0.556455
      4          1           0       -0.544820    2.343911    1.245604
      5          1           0       -1.114764    0.807404    1.969460
      6          1           0       -2.942295    2.306322    1.306944
      7          1           0       -2.509020    2.205701   -0.385977
      8          1           0       -3.092413    0.762903    0.472820
      9          6           0       -0.914603   -0.513317   -0.530448
     10          6           0       -0.112242   -1.476945   -1.390229
     11          1           0       -1.691551   -0.044875   -1.130815
     12          1           0       -1.408203   -1.050234    0.283578
     13          1           0       -0.806113   -2.221933   -1.787075
     14          1           0        0.356064   -0.984697   -2.244001
     15          1           0        0.654261   -2.013871   -0.829500
     16          6           0        0.961738   -0.007500    0.979849
     17          6           0        1.594247    0.919771    2.008397
     18          1           0        1.715834   -0.368774    0.280636
     19          1           0        0.513879   -0.877868    1.467593
     20          1           0        2.535617    0.465069    2.327027
     21          1           0        1.795476    1.926797    1.628350
     22          1           0        0.966650    1.035013    2.892990
     23          6           0        0.543521    1.493568   -0.910293
     24          6           0       -0.359275    2.259094   -1.857087
     25          1           0        1.225148    0.835666   -1.450486
     26          1           0        1.106026    2.241524   -0.340129
     27          1           0        0.286466    2.682719   -2.630204
     28          1           0       -1.117078    1.651980   -2.359972
     29          1           0       -0.811596    3.105882   -1.339129
     30         35           0        0.809284    4.350930    0.923259
 ---------------------------------------------------------------------
                    Distance matrix (angstroms):
                    1          2          3          4          5
     1  N    0.000000
     2  C    1.531042   0.000000
     3  C    2.603867   1.519931   0.000000
     4  H    2.111819   1.100562   2.162288   0.000000
     5  H    2.098991   1.092255   2.141185   1.791552   0.000000
     6  H    3.487755   2.102893   1.092726   2.398554   2.454700
     7  H    2.906082   2.191832   1.088382   2.557194   3.073641
     8  H    2.978238   2.200218   1.092538   3.096290   2.480526
     9  C    1.507215   2.481390   2.890892   3.384502   2.834415
    10  C    2.571267   3.886309   4.386209   4.661940   4.184592
    11  H    2.097305   2.686446   2.525642   3.559306   3.266614
    12  H    2.089714   2.584434   2.928374   3.631962   2.525693
    13  H    3.473657   4.603178   4.834512   5.487472   4.835670
    14  H    2.891887   4.304163   4.783140   4.905973   4.809180
    15  H    2.894742   4.254579   5.024249   4.973341   4.350083
    16  C    1.522933   2.465272   3.846616   2.805259   2.440340
    17  C    2.581318   2.866477   4.386298   2.680604   2.711620
    18  H    2.099815   3.381227   4.667560   3.660653   3.499687
    19  H    2.104063   2.798216   4.028801   3.398527   2.396767
    20  H    3.469082   3.931982   5.449843   3.766778   3.683793
    21  H    2.786722   2.966778   4.413449   2.407792   3.136701
    22  H    3.014474   2.766849   4.209026   2.590683   2.288449
    23  C    1.525414   2.537407   3.362621   2.560363   3.393185
    24  C    2.590670   3.113629   3.266340   3.109391   4.161806
    25  H    2.095159   3.436159   4.292040   3.560406   4.143913
    26  H    2.109933   2.713490   3.739277   2.291359   3.510386
    27  H    3.476480   4.126443   4.340114   3.978406   5.161120
    28  H    2.867017   3.419615   3.218197   3.715700   4.411042
    29  H    2.975920   2.949569   2.907442   2.707880   4.040009
    30  Br   3.948926   3.503135   4.262370   2.442464   4.165702
                    6          7          8          9         10
     6  H    0.000000
     7  H    1.750381   0.000000
     8  H    1.760807   1.777511   0.000000
     9  C    3.929110   3.155328   2.716273   0.000000
    10  C    5.440317   4.507211   4.167648   1.520390   0.000000
    11  H    3.610423   2.507615   2.277403   1.087900   2.147635
    12  H    3.829776   3.501602   2.481903   1.092959   2.159451
    13  H    5.885688   4.946404   4.386746   2.123735   1.092681
    14  H    5.858258   4.673286   4.725168   2.184733   1.091121
    15  H    6.013624   5.292244   4.841908   2.191444   1.090978
    16  C    4.549971   4.337038   4.157732   2.461200   2.988306
    17  C    4.795287   4.921732   4.934307   3.846271   4.495221
    18  H    5.468785   4.992162   4.943366   2.756438   2.713244
    19  H    4.702129   4.699153   4.084978   2.483068   2.986313
    20  H    5.868416   5.986531   5.933086   4.585458   4.959896
    21  H    4.763803   4.760671   5.155711   4.237817   4.933221
    22  H    4.405862   4.919595   4.733631   4.201948   5.081329
    23  C    4.210418   3.178057   3.958142   2.509581   3.079661
    24  C    4.084766   2.605459   3.890642   3.123239   3.773191
    25  H    5.209014   4.117546   4.727127   2.691609   2.672155
    26  H    4.371035   3.615514   4.524831   3.421741   4.051407
    27  H    5.105654   3.616468   4.973055   4.008265   4.358820
    28  H    4.147994   2.478057   3.566107   2.841947   3.426408
    29  H    3.490111   2.144778   3.738293   3.709876   4.636163
    30  Br   4.289753   4.162601   5.319781   5.361525   6.337631
                   11         12         13         14         15
    11  H    0.000000
    12  H    1.758278   0.000000
    13  H    2.440135   2.454179   0.000000
    14  H    2.513001   3.083113   1.757894   0.000000
    15  H    3.077429   2.534028   1.758673   1.774524   0.000000
    16  C    3.390611   2.681177   3.960414   3.422713   2.719156
    17  C    4.645607   3.983795   5.480661   4.821098   4.188495
    18  H    3.702348   3.197500   3.750979   2.932938   2.250707
    19  H    3.508493   2.264067   3.760552   3.716483   2.566485
    20  H    5.485040   4.693138   5.942472   5.267501   4.432641
    21  H    4.864138   4.575444   5.970373   5.054088   4.782495
    22  H    4.941983   4.098440   5.971046   5.553442   4.821847
    23  C    2.722312   3.421328   4.049099   2.820588   3.510117
    24  C    2.758750   4.078523   4.503795   3.344188   4.510146
    25  H    3.063442   3.673981   3.686221   2.167647   2.971767
    26  H    3.698546   4.188798   5.066792   3.820428   4.307199
    27  H    3.687884   5.029609   5.095116   3.688351   5.043388
    28  H    2.172594   3.791447   3.928373   3.022526   4.349534
    29  H    3.277954   4.501380   5.346616   4.349145   5.349797
    30  Br   5.458617   5.873586   7.290950   6.221403   6.603551
                   16         17         18         19         20
    16  C    0.000000
    17  C    1.522436   0.000000
    18  H    1.089990   2.158770   0.000000
    19  H    1.093623   2.165911   1.764296   0.000000
    20  H    2.124925   1.092912   2.356916   2.574788   0.000000
    21  H    2.203901   1.095002   2.663141   3.087795   1.781181
    22  H    2.178753   1.090717   3.058805   2.428142   1.762614
    23  C    2.449642   3.154682   2.502189   3.358412   3.937829
    24  C    3.864030   4.533431   3.972610   4.653646   5.394973
    25  H    2.585893   3.479537   2.165233   3.457931   4.015504
    26  H    2.611756   2.738789   2.751522   3.653642   3.509023
    27  H    4.552555   5.131754   4.452830   5.433363   5.877992
    28  H    4.269632   5.193271   4.368255   4.869333   6.059612
    29  H    4.267964   4.666165   4.591816   5.050231   5.623027
    30  Br   4.361463   3.683279   4.848753   5.265348   4.477801
                   21         22         23         24         25
    21  H    0.000000
    22  H    1.755433   0.000000
    23  C    2.863527   3.854124   0.000000
    24  C    4.111161   5.081307   1.515747   0.000000
    25  H    3.315882   4.355725   1.090531   2.168379   0.000000
    26  H    2.109337   3.453716   1.095873   2.109165   1.795416
    27  H    4.580809   5.803728   2.106716   1.092771   2.384211
    28  H    4.946232   5.684732   2.210035   1.093502   2.641885
    29  H    4.122256   5.036019   2.149372   1.090837   3.051984
    30  Br   2.710378   3.860040   3.405446   3.670372   4.262005
                   26         27         28         29         30
    26  H    0.000000
    27  H    2.471998   0.000000
    28  H    3.060967   1.762210   0.000000
    29  H    2.328603   1.746906   1.802573   0.000000
    30  Br   2.476651   3.960223   4.666348   3.048901   0.000000
 Symmetry turned off by external request.
 Stoichiometry    C8H20BrN
 Framework group  C1[X(C8H20BrN)]
 Deg. of freedom    84
 Full point group                 C1      NOp   1
 Rotational constants (GHZ):           1.2684958           0.4639146           0.4333112
 General basis read from cards:  (5D, 7F)
 ======================================================================================================
                                       Pseudopotential Parameters
 ======================================================================================================
  Center     Atomic      Valence      Angular      Power
  Number     Number     Electrons     Momentum     of R      Exponent        Coefficient   SO-Coeffient
 ======================================================================================================
    1          7
                                   No pseudopotential on this center.
    2          6
                                   No pseudopotential on this center.
    3          6
                                   No pseudopotential on this center.
    4          1
                                   No pseudopotential on this center.
    5          1
                                   No pseudopotential on this center.
    6          1
                                   No pseudopotential on this center.
    7          1
                                   No pseudopotential on this center.
    8          1
                                   No pseudopotential on this center.
    9          6
                                   No pseudopotential on this center.
   10          6
                                   No pseudopotential on this center.
   11          1
                                   No pseudopotential on this center.
   12          1
                                   No pseudopotential on this center.
   13          1
                                   No pseudopotential on this center.
   14          1
                                   No pseudopotential on this center.
   15          1
                                   No pseudopotential on this center.
   16          6
                                   No pseudopotential on this center.
   17          6
                                   No pseudopotential on this center.
   18          1
                                   No pseudopotential on this center.
   19          1
                                   No pseudopotential on this center.
   20          1
                                   No pseudopotential on this center.
   21          1
                                   No pseudopotential on this center.
   22          1
                                   No pseudopotential on this center.
   23          6
                                   No pseudopotential on this center.
   24          6
                                   No pseudopotential on this center.
   25          1
                                   No pseudopotential on this center.
   26          1
                                   No pseudopotential on this center.
   27          1
                                   No pseudopotential on this center.
   28          1
                                   No pseudopotential on this center.
   29          1
                                   No pseudopotential on this center.
   30         35
                                   No pseudopotential on this center.
 ======================================================================================================
   254 basis functions,   475 primitive gaussians,   265 cartesian basis functions
    55 alpha electrons       55 beta electrons
       nuclear repulsion energy       875.0151054484 Hartrees.
 NAtoms=   30 NActive=   30 NUniq=   30 SFac= 1.00D+00 NAtFMM=   60 NAOKFM=F Big=F
 Integral buffers will be    131072 words long.
 Raffenetti 2 integral format.
 Two-electron integral symmetry is turned off.
 One-electron integrals computed using PRISM.
   1 Symmetry operations used in ECPInt.
 ECPInt:  NShTT=    5886 NPrTT=   26844 LenC2=    5666 LenP2D=   18120.
 LDataN:  DoStor=T MaxTD1= 4 Len=   56
 NBasis=   254 RedAO= T EigKep=  4.64D-03  NBF=   254
 NBsUse=   254 1.00D-06 EigRej= -1.00D+00 NBFU=   254
 ExpMin= 1.43D-01 ExpMax= 5.74D+05 ExpMxC= 5.74D+03 IAcc=3 IRadAn=         5 AccDes= 0.00D+00
 Harris functional with IExCor=20419 and IRadAn=       5 diagonalized for initial guess.
 HarFok:  IExCor=20419 AccDes= 0.00D+00 IRadAn=         5 IDoV= 1 UseB2=F ITyADJ=14
 ICtDFT=  3500011 ScaDFX=  1.000000  1.000000  1.000000  1.000000
 FoFCou: FMM=F IPFlag=           0 FMFlag=      100000 FMFlg1=           0
         NFxFlg=           0 DoJE=T BraDBF=F KetDBF=T FulRan=T
         wScrn=  0.000000 ICntrl=       500 IOpCl=  0 I1Cent=   200000004 NGrid=           0
         NMat0=    1 NMatS0=      1 NMatT0=    0 NMatD0=    1 NMtDS0=    0 NMtDT0=    0
 Symmetry not used in FoFCou.
 Requested convergence on RMS density matrix=1.00D-08 within  32 cycles.
 Requested convergence on MAX density matrix=1.00D-06.
 Requested convergence on             energy=1.00D-06.
 No special actions if energy rises.
 Integral accuracy reduced to 1.0D-05 until final iterations.
 Initial convergence to 1.0D-05 achieved.  Increase integral accuracy.
 SCF Done:  E(RCAM-B3LYP) =  -2942.91980203     A.U. after   13 cycles
            NFock= 13  Conv=0.18D-08     -V/T= 2.0009
 QCSCF skips out because SCF is already converged.
 DoSCS=F DFT=T ScalE2(SS,OS)=  1.000000  1.000000
 Range of M.O.s used for correlation:     1   254
 NBasis=   254 NAE=    55 NBE=    55 NFC=     0 NFV=     0
 NROrb=    254 NOA=    55 NOB=    55 NVA=   199 NVB=   199
   1 Symmetry operations used in ECPInt.
 ECPInt:  NShTT=    5886 NPrTT=   26844 LenC2=    5666 LenP2D=   18120.
 LDataN:  DoStor=T MaxTD1= 5 Len=  102
 Number of processors reduced to  49 by ecpmxn.
 Symmetrizing basis deriv contribution to polar:
 IMax=3 JMax=2 DiffMx= 0.00D+00
 G2DrvN: will do    31 centers at a time, making    1 passes.
 Calling FoFCou, ICntrl=  3107 FMM=F I1Cent=   0 AccDes= 0.00D+00.
 End of G2Drv F.D. properties file   721 does not exist.
 End of G2Drv F.D. properties file   722 does not exist.
 End of G2Drv F.D. properties file   788 does not exist.
          IDoAtm=111111111111111111111111111111
          Differentiating once with respect to nuclear coordinates.
 Keep R1 ints in memory in canonical form, NReq=1118761345.
          There are    93 degrees of freedom in the 1st order CPHF.  IDoFFX=6 NUNeed=     0.
     87 vectors produced by pass  0 Test12= 1.18D-14 1.08D-09 XBig12= 6.46D-02 3.81D-02.
 AX will form    87 AO Fock derivatives at one time.
     87 vectors produced by pass  1 Test12= 1.18D-14 1.08D-09 XBig12= 2.70D-03 5.61D-03.
     87 vectors produced by pass  2 Test12= 1.18D-14 1.08D-09 XBig12= 3.51D-05 1.07D-03.
     87 vectors produced by pass  3 Test12= 1.18D-14 1.08D-09 XBig12= 2.72D-07 9.09D-05.
     87 vectors produced by pass  4 Test12= 1.18D-14 1.08D-09 XBig12= 1.04D-09 4.67D-06.
     87 vectors produced by pass  5 Test12= 1.18D-14 1.08D-09 XBig12= 3.01D-12 1.49D-07.
     32 vectors produced by pass  6 Test12= 1.18D-14 1.08D-09 XBig12= 8.61D-15 7.71D-09.
 InvSVY:  IOpt=1 It=  1 EMax= 2.50D-16
 Solved reduced A of dimension   554 with    93 vectors.
 End of Minotr F.D. properties file   721 does not exist.
 End of Minotr F.D. properties file   722 does not exist.
 End of Minotr F.D. properties file   788 does not exist.

 **********************************************************************

            Population analysis using the SCF density.

 **********************************************************************

 Alpha  occ. eigenvalues -- -482.56539 -61.64735 -56.21510 -56.21472 -56.21467
 Alpha  occ. eigenvalues --  -14.54418 -10.34416 -10.33508 -10.31115 -10.30855
 Alpha  occ. eigenvalues --  -10.29776 -10.27189 -10.26055 -10.25818  -8.42813
 Alpha  occ. eigenvalues --   -6.43791  -6.43733  -6.43712  -2.56085  -2.56072
 Alpha  occ. eigenvalues --   -2.56055  -2.56008  -2.56007  -1.11149  -0.90171
 Alpha  occ. eigenvalues --   -0.88455  -0.87741  -0.83375  -0.76631  -0.74911
 Alpha  occ. eigenvalues --   -0.73564  -0.66898  -0.65684  -0.61232  -0.60931
 Alpha  occ. eigenvalues --   -0.58725  -0.56947  -0.54917  -0.52518  -0.51536
 Alpha  occ. eigenvalues --   -0.50280  -0.48647  -0.48102  -0.47301  -0.46994
 Alpha  occ. eigenvalues --   -0.46502  -0.45856  -0.44843  -0.43907  -0.43278
 Alpha  occ. eigenvalues --   -0.42090  -0.41792  -0.21634  -0.21521  -0.21436
 Alpha virt. eigenvalues --    0.08448   0.10950   0.11691   0.12779   0.13460
 Alpha virt. eigenvalues --    0.14652   0.15907   0.16699   0.17265   0.18111
 Alpha virt. eigenvalues --    0.18675   0.19260   0.19585   0.19955   0.20589
 Alpha virt. eigenvalues --    0.21752   0.22108   0.23636   0.24255   0.24644
 Alpha virt. eigenvalues --    0.25900   0.26744   0.27554   0.28479   0.29918
 Alpha virt. eigenvalues --    0.30504   0.31806   0.32911   0.49100   0.50484
 Alpha virt. eigenvalues --    0.51011   0.52759   0.53297   0.54830   0.56841
 Alpha virt. eigenvalues --    0.58092   0.59270   0.61763   0.63230   0.64664
 Alpha virt. eigenvalues --    0.65347   0.65789   0.66167   0.66798   0.66933
 Alpha virt. eigenvalues --    0.67537   0.67736   0.68642   0.69841   0.70210
 Alpha virt. eigenvalues --    0.73011   0.75170   0.76569   0.78352   0.79366
 Alpha virt. eigenvalues --    0.80416   0.81604   0.85293   0.86944   0.88717
 Alpha virt. eigenvalues --    0.89211   0.89878   0.91011   0.91176   0.91739
 Alpha virt. eigenvalues --    0.93146   0.93469   0.93921   0.94609   0.95755
 Alpha virt. eigenvalues --    0.97493   0.97875   0.99046   0.99508   1.01099
 Alpha virt. eigenvalues --    1.02440   1.03459   1.04876   1.06592   1.08009
 Alpha virt. eigenvalues --    1.10521   1.11979   1.17294   1.19933   1.24335
 Alpha virt. eigenvalues --    1.25237   1.27759   1.30245   1.37548   1.41292
 Alpha virt. eigenvalues --    1.43754   1.46920   1.47421   1.52956   1.56537
 Alpha virt. eigenvalues --    1.58542   1.60726   1.63757   1.65372   1.68058
 Alpha virt. eigenvalues --    1.71423   1.73242   1.75437   1.77437   1.82749
 Alpha virt. eigenvalues --    1.86743   1.87127   1.89238   1.93066   1.93514
 Alpha virt. eigenvalues --    1.95163   1.96509   1.98797   2.01059   2.03122
 Alpha virt. eigenvalues --    2.04772   2.06018   2.08165   2.09636   2.10160
 Alpha virt. eigenvalues --    2.11167   2.11674   2.13132   2.14260   2.14752
 Alpha virt. eigenvalues --    2.15274   2.16724   2.16860   2.18120   2.18970
 Alpha virt. eigenvalues --    2.19157   2.20974   2.21923   2.24570   2.26345
 Alpha virt. eigenvalues --    2.28501   2.30760   2.32384   2.34132   2.35569
 Alpha virt. eigenvalues --    2.38841   2.39109   2.44665   2.45704   2.46991
 Alpha virt. eigenvalues --    2.49860   2.50680   2.52731   2.54090   2.56658
 Alpha virt. eigenvalues --    2.58927   2.62873   2.66919   2.68440   2.69830
 Alpha virt. eigenvalues --    2.71736   2.73865   2.75532   2.78426   2.78689
 Alpha virt. eigenvalues --    2.79946   2.80707   2.82698   2.84613   2.85430
 Alpha virt. eigenvalues --    2.87200   2.89085   2.90099   2.91838   2.92925
 Alpha virt. eigenvalues --    2.93769   2.95369   2.96532   2.97587   2.99442
 Alpha virt. eigenvalues --    3.00748   3.01978   3.02802   3.24140   3.27191
 Alpha virt. eigenvalues --    3.29023   3.29663   3.33919   3.36572   3.38370
 Alpha virt. eigenvalues --    3.41904   3.45280   3.46597   3.48502   3.49437
 Alpha virt. eigenvalues --    3.50771   3.53795   3.54421   3.56562   3.57815
 Alpha virt. eigenvalues --    3.59335   3.60869   3.62467   8.69953
          Condensed to atoms (all electrons):
               1          2          3          4          5          6
     1  N    6.872616   0.226009  -0.035296  -0.026746  -0.042040   0.003225
     2  C    0.226009   5.034811   0.369740   0.323033   0.388249  -0.026328
     3  C   -0.035296   0.369740   4.919339  -0.024182  -0.041741   0.387843
     4  H   -0.026746   0.323033  -0.024182   0.459865  -0.018424  -0.002787
     5  H   -0.042040   0.388249  -0.041741  -0.018424   0.598885  -0.002053
     6  H    0.003225  -0.026328   0.387843  -0.002787  -0.002053   0.539347
     7  H   -0.002120  -0.031106   0.391420  -0.002737   0.004517  -0.020590
     8  H   -0.003790  -0.033749   0.383030   0.003357  -0.005408  -0.027713
     9  C    0.252634  -0.042555  -0.003383   0.002446  -0.004728   0.000137
    10  C   -0.038525   0.003962   0.000393  -0.000101  -0.000130  -0.000007
    11  H   -0.034494  -0.008158   0.003915  -0.000020  -0.000020   0.000062
    12  H   -0.039072   0.000071  -0.003290   0.000122   0.003593  -0.000024
    13  H    0.003315  -0.000068   0.000008   0.000002   0.000000  -0.000000
    14  H   -0.003070  -0.000002  -0.000020   0.000004   0.000001   0.000000
    15  H   -0.003877  -0.000108   0.000000  -0.000002  -0.000006   0.000000
    16  C    0.246194  -0.037848   0.003452  -0.005090  -0.001621  -0.000065
    17  C   -0.038375  -0.000334   0.000269   0.000214  -0.005227   0.000008
    18  H   -0.037452   0.003993  -0.000156  -0.000181   0.000439   0.000003
    19  H   -0.042167  -0.004342  -0.000109  -0.000037   0.002514  -0.000000
    20  H    0.003598   0.000061  -0.000008   0.000243   0.000041  -0.000000
    21  H   -0.002647  -0.002986   0.000041   0.000264   0.000018  -0.000000
    22  H   -0.002348   0.001422   0.000062  -0.001279   0.001331   0.000011
    23  C    0.229633  -0.038300  -0.002638   0.002020   0.003638   0.000023
    24  C   -0.037289   0.000635  -0.003816  -0.003026  -0.000090   0.000009
    25  H   -0.040124   0.004211  -0.000154   0.000399  -0.000226   0.000004
    26  H   -0.028307  -0.003312  -0.000139  -0.000462   0.000207  -0.000012
    27  H    0.003392  -0.000085   0.000268  -0.000022   0.000002  -0.000005
    28  H   -0.004830  -0.000402  -0.001197   0.000030  -0.000009   0.000024
    29  H   -0.001976   0.001570  -0.004398   0.001230   0.000023   0.000282
    30  Br   0.000060  -0.050561   0.001422   0.086263   0.000982   0.000467
               7          8          9         10         11         12
     1  N   -0.002120  -0.003790   0.252634  -0.038525  -0.034494  -0.039072
     2  C   -0.031106  -0.033749  -0.042555   0.003962  -0.008158   0.000071
     3  C    0.391420   0.383030  -0.003383   0.000393   0.003915  -0.003290
     4  H   -0.002737   0.003357   0.002446  -0.000101  -0.000020   0.000122
     5  H    0.004517  -0.005408  -0.004728  -0.000130  -0.000020   0.003593
     6  H   -0.020590  -0.027713   0.000137  -0.000007   0.000062  -0.000024
     7  H    0.553444  -0.031909  -0.002548  -0.000027   0.000577   0.000244
     8  H   -0.031909   0.613322   0.002142   0.000091  -0.000843   0.000570
     9  C   -0.002548   0.002142   4.865997   0.366272   0.401691   0.396591
    10  C   -0.000027   0.000091   0.366272   4.925890  -0.036555  -0.037035
    11  H    0.000577  -0.000843   0.401691  -0.036555   0.553704  -0.030857
    12  H    0.000244   0.000570   0.396591  -0.037035  -0.030857   0.575514
    13  H    0.000000   0.000016  -0.026260   0.386433  -0.002752  -0.002896
    14  H    0.000003   0.000003  -0.031279   0.392891  -0.004371   0.004311
    15  H   -0.000001  -0.000005  -0.031739   0.391256   0.004219  -0.004140
    16  C   -0.000012  -0.000188  -0.039306  -0.004557   0.004280  -0.006925
    17  C   -0.000020   0.000017   0.003685   0.000231  -0.000143  -0.000077
    18  H    0.000006  -0.000003  -0.006335   0.002113  -0.000174  -0.000055
    19  H    0.000002  -0.000011  -0.000572  -0.003244   0.000271   0.004511
    20  H    0.000000   0.000000  -0.000073  -0.000002   0.000003  -0.000002
    21  H    0.000005  -0.000004  -0.000004  -0.000012   0.000003   0.000004
    22  H    0.000001  -0.000005  -0.000129   0.000006  -0.000003  -0.000029
    23  C   -0.000221   0.000110  -0.037639  -0.004504  -0.004680   0.004287
    24  C    0.003513  -0.000040  -0.003015  -0.001164   0.002555   0.000059
    25  H   -0.000025   0.000010  -0.008716   0.002869  -0.000395  -0.000011
    26  H    0.000043  -0.000015   0.003372   0.000024   0.000002  -0.000115
    27  H    0.000075  -0.000007   0.000003   0.000019  -0.000104  -0.000000
    28  H    0.000154  -0.000052   0.000321  -0.000077   0.002459   0.000004
    29  H    0.002055   0.000099  -0.000314   0.000033  -0.000161  -0.000003
    30  Br   0.000120  -0.000012  -0.000146   0.000002  -0.000011   0.000006
              13         14         15         16         17         18
     1  N    0.003315  -0.003070  -0.003877   0.246194  -0.038375  -0.037452
     2  C   -0.000068  -0.000002  -0.000108  -0.037848  -0.000334   0.003993
     3  C    0.000008  -0.000020   0.000000   0.003452   0.000269  -0.000156
     4  H    0.000002   0.000004  -0.000002  -0.005090   0.000214  -0.000181
     5  H    0.000000   0.000001  -0.000006  -0.001621  -0.005227   0.000439
     6  H   -0.000000   0.000000   0.000000  -0.000065   0.000008   0.000003
     7  H    0.000000   0.000003  -0.000001  -0.000012  -0.000020   0.000006
     8  H    0.000016   0.000003  -0.000005  -0.000188   0.000017  -0.000003
     9  C   -0.026260  -0.031279  -0.031739  -0.039306   0.003685  -0.006335
    10  C    0.386433   0.392891   0.391256  -0.004557   0.000231   0.002113
    11  H   -0.002752  -0.004371   0.004219   0.004280  -0.000143  -0.000174
    12  H   -0.002896   0.004311  -0.004140  -0.006925  -0.000077  -0.000055
    13  H    0.556053  -0.024375  -0.025188   0.000054  -0.000004   0.000081
    14  H   -0.024375   0.554194  -0.028535  -0.000896  -0.000016   0.000154
    15  H   -0.025188  -0.028535   0.565001   0.003358   0.000030  -0.000324
    16  C    0.000054  -0.000896   0.003358   4.891340   0.360102   0.397667
    17  C   -0.000004  -0.000016   0.000030   0.360102   4.988216  -0.031860
    18  H    0.000081   0.000154  -0.000324   0.397667  -0.031860   0.575289
    19  H   -0.000037   0.000114   0.001171   0.391301  -0.034382  -0.034590
    20  H   -0.000000  -0.000000   0.000011  -0.026961   0.372795  -0.006242
    21  H    0.000000   0.000000   0.000005  -0.025733   0.362440  -0.001637
    22  H    0.000000  -0.000000  -0.000003  -0.034681   0.394142   0.004355
    23  C    0.000134   0.000597  -0.000492  -0.039334  -0.001234  -0.004872
    24  C   -0.000009   0.000503   0.000028   0.003708   0.000070   0.000210
    25  H    0.000058   0.000818  -0.000032  -0.007224  -0.000594   0.004588
    26  H   -0.000002   0.000033  -0.000013  -0.003354  -0.001577  -0.000791
    27  H   -0.000000  -0.000003   0.000002  -0.000075   0.000001  -0.000015
    28  H   -0.000018   0.000596  -0.000012  -0.000023   0.000000   0.000006
    29  H    0.000001  -0.000014  -0.000001  -0.000040   0.000043   0.000006
    30  Br   0.000000   0.000001   0.000000   0.000221  -0.024964   0.000031
              19         20         21         22         23         24
     1  N   -0.042167   0.003598  -0.002647  -0.002348   0.229633  -0.037289
     2  C   -0.004342   0.000061  -0.002986   0.001422  -0.038300   0.000635
     3  C   -0.000109  -0.000008   0.000041   0.000062  -0.002638  -0.003816
     4  H   -0.000037   0.000243   0.000264  -0.001279   0.002020  -0.003026
     5  H    0.002514   0.000041   0.000018   0.001331   0.003638  -0.000090
     6  H   -0.000000  -0.000000  -0.000000   0.000011   0.000023   0.000009
     7  H    0.000002   0.000000   0.000005   0.000001  -0.000221   0.003513
     8  H   -0.000011   0.000000  -0.000004  -0.000005   0.000110  -0.000040
     9  C   -0.000572  -0.000073  -0.000004  -0.000129  -0.037639  -0.003015
    10  C   -0.003244  -0.000002  -0.000012   0.000006  -0.004504  -0.001164
    11  H    0.000271   0.000003   0.000003  -0.000003  -0.004680   0.002555
    12  H    0.004511  -0.000002   0.000004  -0.000029   0.004287   0.000059
    13  H   -0.000037  -0.000000   0.000000   0.000000   0.000134  -0.000009
    14  H    0.000114  -0.000000   0.000000  -0.000000   0.000597   0.000503
    15  H    0.001171   0.000011   0.000005  -0.000003  -0.000492   0.000028
    16  C    0.391301  -0.026961  -0.025733  -0.034681  -0.039334   0.003708
    17  C   -0.034382   0.372795   0.362440   0.394142  -0.001234   0.000070
    18  H   -0.034590  -0.006242  -0.001637   0.004355  -0.004872   0.000210
    19  H    0.596286  -0.000117   0.003268  -0.007375   0.004189  -0.000201
    20  H   -0.000117   0.585971  -0.015358  -0.028909  -0.000063  -0.000001
    21  H    0.003268  -0.015358   0.467313  -0.022125  -0.003716  -0.000037
    22  H   -0.007375  -0.028909  -0.022125   0.570158   0.000200   0.000001
    23  C    0.004189  -0.000063  -0.003716   0.000200   4.996515   0.377963
    24  C   -0.000201  -0.000001  -0.000037   0.000001   0.377963   4.952106
    25  H    0.000167  -0.000004   0.000248  -0.000011   0.383662  -0.040788
    26  H    0.000069  -0.000031   0.006522  -0.000118   0.343929  -0.030917
    27  H    0.000003  -0.000000   0.000010  -0.000000  -0.023503   0.382513
    28  H    0.000001   0.000000  -0.000008   0.000000  -0.038353   0.372887
    29  H    0.000004  -0.000000  -0.000072  -0.000004  -0.028634   0.377510
    30  Br  -0.000036   0.000565   0.041162   0.000577  -0.045510  -0.011221
              25         26         27         28         29         30
     1  N   -0.040124  -0.028307   0.003392  -0.004830  -0.001976   0.000060
     2  C    0.004211  -0.003312  -0.000085  -0.000402   0.001570  -0.050561
     3  C   -0.000154  -0.000139   0.000268  -0.001197  -0.004398   0.001422
     4  H    0.000399  -0.000462  -0.000022   0.000030   0.001230   0.086263
     5  H   -0.000226   0.000207   0.000002  -0.000009   0.000023   0.000982
     6  H    0.000004  -0.000012  -0.000005   0.000024   0.000282   0.000467
     7  H   -0.000025   0.000043   0.000075   0.000154   0.002055   0.000120
     8  H    0.000010  -0.000015  -0.000007  -0.000052   0.000099  -0.000012
     9  C   -0.008716   0.003372   0.000003   0.000321  -0.000314  -0.000146
    10  C    0.002869   0.000024   0.000019  -0.000077   0.000033   0.000002
    11  H   -0.000395   0.000002  -0.000104   0.002459  -0.000161  -0.000011
    12  H   -0.000011  -0.000115  -0.000000   0.000004  -0.000003   0.000006
    13  H    0.000058  -0.000002  -0.000000  -0.000018   0.000001   0.000000
    14  H    0.000818   0.000033  -0.000003   0.000596  -0.000014   0.000001
    15  H   -0.000032  -0.000013   0.000002  -0.000012  -0.000001   0.000000
    16  C   -0.007224  -0.003354  -0.000075  -0.000023  -0.000040   0.000221
    17  C   -0.000594  -0.001577   0.000001   0.000000   0.000043  -0.024964
    18  H    0.004588  -0.000791  -0.000015   0.000006   0.000006   0.000031
    19  H    0.000167   0.000069   0.000003   0.000001   0.000004  -0.000036
    20  H   -0.000004  -0.000031  -0.000000   0.000000  -0.000000   0.000565
    21  H    0.000248   0.006522   0.000010  -0.000008  -0.000072   0.041162
    22  H   -0.000011  -0.000118  -0.000000   0.000000  -0.000004   0.000577
    23  C    0.383662   0.343929  -0.023503  -0.038353  -0.028634  -0.045510
    24  C   -0.040788  -0.030917   0.382513   0.372887   0.377510  -0.011221
    25  H    0.613234  -0.019980  -0.005124  -0.001749   0.004580   0.001334
    26  H   -0.019980   0.477608  -0.001429   0.004521  -0.006113   0.067077
    27  H   -0.005124  -0.001429   0.554486  -0.027703  -0.019272   0.000688
    28  H   -0.001749   0.004521  -0.027703   0.631641  -0.027107   0.000370
    29  H    0.004580  -0.006113  -0.019272  -0.027107   0.502542   0.022836
    30  Br   0.001334   0.067077   0.000688   0.000370   0.022836  35.672104
 Mulliken charges:
               1
     1  N   -0.376129
     2  C   -0.077524
     3  C   -0.340674
     4  H    0.205602
     5  H    0.117282
     6  H    0.148139
     7  H    0.135138
     8  H    0.100988
     9  C   -0.056550
    10  C   -0.346546
    11  H    0.149998
    12  H    0.134644
    13  H    0.135453
    14  H    0.138358
    15  H    0.129396
    16  C   -0.067745
    17  C   -0.343459
    18  H    0.135745
    19  H    0.123347
    20  H    0.114483
    21  H    0.193036
    22  H    0.124754
    23  C   -0.073208
    24  C   -0.342658
    25  H    0.108977
    26  H    0.193279
    27  H    0.135882
    28  H    0.088526
    29  H    0.175295
    30  Br  -0.763829
 Sum of Mulliken charges =  -0.00000
 Mulliken charges with hydrogens summed into heavy atoms:
               1
     1  N   -0.376129
     2  C    0.245360
     3  C    0.043590
     9  C    0.228091
    10  C    0.056661
    16  C    0.191347
    17  C    0.088815
    23  C    0.229048
    24  C    0.057045
    30  Br  -0.763829
 APT charges:
               1
     1  N   -0.069592
     2  C   -0.646326
     3  C   -1.280672
     4  H    0.332362
     5  H    0.355307
     6  H    0.690497
     7  H    0.381548
     8  H    0.305531
     9  C   -0.659108
    10  C   -1.169286
    11  H    0.448456
    12  H    0.368520
    13  H    0.555250
    14  H    0.382609
    15  H    0.313984
    16  C   -0.548153
    17  C   -1.258533
    18  H    0.346978
    19  H    0.333212
    20  H    0.533484
    21  H    0.348869
    22  H    0.440514
    23  C   -0.598947
    24  C   -1.267148
    25  H    0.305367
    26  H    0.357783
    27  H    0.616292
    28  H    0.280695
    29  H    0.464482
    30  Br  -0.663976
 Sum of APT charges =  -0.00000
 APT charges with hydrogens summed into heavy atoms:
               1
     1  N   -0.069592
     2  C    0.041344
     3  C    0.096905
     9  C    0.157869
    10  C    0.082557
    16  C    0.132037
    17  C    0.064334
    23  C    0.064203
    24  C    0.094321
    30  Br  -0.663976
 Electronic spatial extent (au):  <R**2>=           4224.0004
 Charge=             -0.0000 electrons
 Dipole moment (field-independent basis, Debye):
    X=             -3.2959    Y=            -12.4840    Z=             -2.8795  Tot=             13.2289
 Quadrupole moment (field-independent basis, Debye-Ang):
   XX=            -76.5559   YY=           -137.2727   ZZ=            -76.9355
   XY=            -13.2172   XZ=             -2.6165   YZ=            -13.3305
 Traceless Quadrupole moment (field-independent basis, Debye-Ang):
   XX=             20.3655   YY=            -40.3513   ZZ=             19.9859
   XY=            -13.2172   XZ=             -2.6165   YZ=            -13.3305
 Octapole moment (field-independent basis, Debye-Ang**2):
  XXX=            -13.1343  YYY=           -664.7116  ZZZ=            -56.8060  XYY=            -61.0129
  XXY=           -135.7793  XXZ=            -16.8817  XZZ=             -4.8548  YZZ=           -137.9976
  YYZ=            -82.0717  XYZ=            -14.6234
 Hexadecapole moment (field-independent basis, Debye-Ang**3):
 XXXX=           -735.4996 YYYY=          -4313.5944 ZZZZ=           -794.9988 XXXY=           -156.0664
 XXXZ=           -101.4101 YYYX=           -372.4334 YYYZ=           -533.6418 ZZZX=           -107.1230
 ZZZY=           -280.9923 XXYY=           -671.5672 XXZZ=           -250.0062 YYZZ=           -694.1611
 XXYZ=            -90.8192 YYXZ=            -87.2270 ZZXY=            -54.6767
 N-N= 8.750151054484D+02 E-N=-8.761444793447D+03  KE= 2.940248445351D+03
  Exact polarizability:   0.000   0.000   0.000   0.000   0.000   0.000
 Approx polarizability: 123.019   2.628 137.197   1.027   2.545 123.583
   1 Symmetry operations used in ECPInt.
 ECPInt:  NShTT=    5886 NPrTT=   26844 LenC2=    5666 LenP2D=   18120.
 LDataN:  DoStor=T MaxTD1= 6 Len=  172
 Calling FoFJK, ICntrl=    100147 FMM=F ISym2X=0 I1Cent= 0 IOpClX= 0 NMat=1 NMatS=1 NMatT=0.
 -------------------------------------------------------------------
 Center     Atomic                   Forces (Hartrees/Bohr)
 Number     Number              X              Y              Z
 -------------------------------------------------------------------
      1        7          -0.000000119    0.000000064   -0.000000245
      2        6           0.000000701    0.000000432    0.000000495
      3        6          -0.000000057   -0.000000143    0.000001532
      4        1           0.000000756   -0.000000088    0.000000167
      5        1           0.000001175    0.000000295    0.000000541
      6        1           0.000000862    0.000000141    0.000001330
      7        1          -0.000000085    0.000000111    0.000000838
      8        1           0.000000443    0.000000435    0.000001689
      9        6          -0.000000207   -0.000000178    0.000000871
     10        6          -0.000000764   -0.000000089   -0.000000294
     11        1          -0.000000899    0.000000040    0.000000787
     12        1           0.000000103    0.000000016    0.000000869
     13        1          -0.000001036   -0.000000082    0.000000810
     14        1          -0.000001545   -0.000000547    0.000000306
     15        1          -0.000000445   -0.000000174   -0.000000028
     16        6           0.000000701    0.000000607   -0.000000290
     17        6           0.000001258   -0.000000420   -0.000001265
     18        1           0.000000196   -0.000000175   -0.000001123
     19        1           0.000000679    0.000000067   -0.000000040
     20        1           0.000001307    0.000000276   -0.000001605
     21        1           0.000000995    0.000000479   -0.000001502
     22        1           0.000001473    0.000000347   -0.000000384
     23        6          -0.000000098   -0.000000443   -0.000000429
     24        6          -0.000001788   -0.000000213    0.000000574
     25        1          -0.000000924   -0.000000174   -0.000000802
     26        1          -0.000000084    0.000000034   -0.000001278
     27        1          -0.000001204   -0.000000163   -0.000000788
     28        1          -0.000001383   -0.000000327    0.000000417
     29        1          -0.000000514   -0.000000282   -0.000000213
     30       35           0.000000504    0.000000152   -0.000000941
 -------------------------------------------------------------------
 Cartesian Forces:  Max     0.000001788 RMS     0.000000746
 FormGI is forming the generalized inverse of G from B-inverse, IUseBI=4.

 GradGradGradGradGradGradGradGradGradGradGradGradGradGradGradGradGradGrad
 Berny optimization.
 Internal  Forces:  Max     0.000000493 RMS     0.000000115
 Search for a local minimum.
 Step number   1 out of a maximum of  177
 All quantities printed in internal units (Hartrees-Bohrs-Radians)
 Mixed Optimization -- En-DIIS/RFO-DIIS
 Second derivative matrix not updated -- analytic derivatives used.
 ITU=  0
     Eigenvalues ---    0.00063   0.00183   0.00221   0.00230   0.00287
     Eigenvalues ---    0.00384   0.00593   0.00643   0.00757   0.00996
     Eigenvalues ---    0.01982   0.02789   0.03418   0.03682   0.03897
     Eigenvalues ---    0.03975   0.04057   0.04081   0.04177   0.04209
     Eigenvalues ---    0.04352   0.04421   0.04487   0.04640   0.04781
     Eigenvalues ---    0.04814   0.04874   0.04927   0.05460   0.06162
     Eigenvalues ---    0.06529   0.07013   0.07695   0.07790   0.08120
     Eigenvalues ---    0.09010   0.11713   0.12331   0.12572   0.12676
     Eigenvalues ---    0.12742   0.12770   0.13792   0.14733   0.15019
     Eigenvalues ---    0.15589   0.15903   0.16248   0.16616   0.17492
     Eigenvalues ---    0.17748   0.18546   0.20251   0.22310   0.25334
     Eigenvalues ---    0.25747   0.26195   0.29039   0.29746   0.30021
     Eigenvalues ---    0.30484   0.31608   0.33475   0.33879   0.34017
     Eigenvalues ---    0.34292   0.34450   0.34590   0.34689   0.34724
     Eigenvalues ---    0.34735   0.34865   0.34948   0.34976   0.35071
     Eigenvalues ---    0.35278   0.35325   0.35438   0.35545   0.35641
     Eigenvalues ---    0.36195   0.38119   0.38472   0.40973
 RFO step:  Lambda= 0.00000000D+00 EMin= 6.31799696D-04
 Linear search not attempted -- first point.
 Iteration  1 RMS(Cart)=  0.00000917 RMS(Int)=  0.00000000
 Iteration  2 RMS(Cart)=  0.00000000 RMS(Int)=  0.00000000
 Variable       Old X    -DE/DX   Delta X   Delta X   Delta X     New X
                                 (Linear)    (Quad)   (Total)
    R1        2.89325   0.00000   0.00000  -0.00000  -0.00000   2.89325
    R2        2.84822   0.00000   0.00000   0.00000   0.00000   2.84822
    R3        2.87793   0.00000   0.00000   0.00000   0.00000   2.87793
    R4        2.88261  -0.00000   0.00000   0.00000   0.00000   2.88262
    R5        2.87225   0.00000   0.00000   0.00000   0.00000   2.87225
    R6        2.07976  -0.00000   0.00000  -0.00000  -0.00000   2.07976
    R7        2.06406  -0.00000   0.00000   0.00000   0.00000   2.06406
    R8        2.06495  -0.00000   0.00000  -0.00000  -0.00000   2.06495
    R9        2.05674   0.00000   0.00000   0.00000   0.00000   2.05674
   R10        2.06460  -0.00000   0.00000  -0.00000  -0.00000   2.06460
   R11        4.61559   0.00000   0.00000  -0.00001  -0.00001   4.61558
   R12        2.87312   0.00000   0.00000   0.00000   0.00000   2.87312
   R13        2.05583   0.00000   0.00000   0.00000   0.00000   2.05583
   R14        2.06539  -0.00000   0.00000  -0.00000  -0.00000   2.06539
   R15        2.06487  -0.00000   0.00000  -0.00000  -0.00000   2.06487
   R16        2.06192  -0.00000   0.00000  -0.00000  -0.00000   2.06192
   R17        2.06165   0.00000   0.00000   0.00000   0.00000   2.06165
   R18        2.87699  -0.00000   0.00000  -0.00000  -0.00000   2.87699
   R19        2.05978   0.00000   0.00000   0.00000   0.00000   2.05978
   R20        2.06665   0.00000   0.00000   0.00000   0.00000   2.06665
   R21        2.06530  -0.00000   0.00000  -0.00000  -0.00000   2.06530
   R22        2.06925   0.00000   0.00000   0.00000   0.00000   2.06926
   R23        2.06116   0.00000   0.00000   0.00000   0.00000   2.06116
   R24        2.86435   0.00000   0.00000   0.00000   0.00000   2.86435
   R25        2.06081  -0.00000   0.00000  -0.00000  -0.00000   2.06081
   R26        2.07090   0.00000   0.00000  -0.00000  -0.00000   2.07090
   R27        2.06504   0.00000   0.00000   0.00000   0.00000   2.06504
   R28        2.06642   0.00000   0.00000  -0.00000  -0.00000   2.06642
   R29        2.06138  -0.00000   0.00000  -0.00000  -0.00000   2.06138
   R30        4.68019   0.00000   0.00000   0.00002   0.00002   4.68022
    A1        1.91135   0.00000   0.00000  -0.00000  -0.00000   1.91135
    A2        1.87890  -0.00000   0.00000  -0.00000  -0.00000   1.87889
    A3        1.95886  -0.00000   0.00000   0.00000   0.00000   1.95886
    A4        1.89594  -0.00000   0.00000  -0.00000  -0.00000   1.89594
    A5        1.94935  -0.00000   0.00000  -0.00000  -0.00000   1.94935
    A6        1.86663   0.00000   0.00000   0.00000   0.00000   1.86663
    A7        2.04515  -0.00000   0.00000  -0.00000  -0.00000   2.04515
    A8        1.84251   0.00000   0.00000   0.00000   0.00000   1.84251
    A9        1.83353  -0.00000   0.00000  -0.00000  -0.00000   1.83353
   A10        1.92299  -0.00000   0.00000  -0.00000  -0.00000   1.92298
   A11        1.90256   0.00000   0.00000   0.00000   0.00000   1.90256
   A12        1.91240  -0.00000   0.00000   0.00000   0.00000   1.91240
   A13        1.85078  -0.00000   0.00000   0.00000   0.00000   1.85078
   A14        1.97768  -0.00000   0.00000  -0.00000  -0.00000   1.97768
   A15        1.98516   0.00000   0.00000   0.00000   0.00000   1.98516
   A16        1.86301   0.00000   0.00000   0.00000   0.00000   1.86301
   A17        1.87393  -0.00000   0.00000   0.00000   0.00000   1.87393
   A18        1.90555   0.00000   0.00000   0.00000   0.00000   1.90555
   A19        2.81681  -0.00000   0.00000  -0.00001  -0.00001   2.81680
   A20        2.02921  -0.00000   0.00000   0.00000   0.00000   2.02921
   A21        1.86261   0.00000   0.00000  -0.00000  -0.00000   1.86261
   A22        1.84769   0.00000   0.00000   0.00000   0.00000   1.84769
   A23        1.91530   0.00000   0.00000   0.00000   0.00000   1.91530
   A24        1.92640  -0.00000   0.00000  -0.00000  -0.00000   1.92640
   A25        1.87551  -0.00000   0.00000   0.00000   0.00000   1.87551
   A26        1.87799  -0.00000   0.00000  -0.00000  -0.00000   1.87799
   A27        1.96390   0.00000   0.00000   0.00000   0.00000   1.96390
   A28        1.97366  -0.00000   0.00000  -0.00000  -0.00000   1.97366
   A29        1.87125   0.00000   0.00000  -0.00000  -0.00000   1.87125
   A30        1.87263   0.00000   0.00000   0.00000   0.00000   1.87263
   A31        1.89932  -0.00000   0.00000  -0.00000  -0.00000   1.89932
   A32        2.02297   0.00000   0.00000  -0.00000  -0.00000   2.02297
   A33        1.84589  -0.00000   0.00000  -0.00000  -0.00000   1.84589
   A34        1.84805  -0.00000   0.00000  -0.00000  -0.00000   1.84805
   A35        1.92605   0.00000   0.00000   0.00000   0.00000   1.92605
   A36        1.93217  -0.00000   0.00000  -0.00000  -0.00000   1.93217
   A37        1.88140   0.00000   0.00000  -0.00000  -0.00000   1.88140
   A38        1.87697   0.00000   0.00000   0.00000   0.00000   1.87697
   A39        1.98450  -0.00000   0.00000  -0.00000  -0.00000   1.98450
   A40        1.95327   0.00000   0.00000  -0.00000  -0.00000   1.95327
   A41        1.90236   0.00000   0.00000  -0.00000  -0.00000   1.90235
   A42        1.87877   0.00000   0.00000   0.00000   0.00000   1.87877
   A43        1.86508   0.00000   0.00000  -0.00000  -0.00000   1.86508
   A44        2.03908  -0.00000   0.00000  -0.00000  -0.00000   2.03908
   A45        1.83647   0.00000   0.00000  -0.00000  -0.00000   1.83647
   A46        1.85081   0.00000   0.00000   0.00000   0.00000   1.85081
   A47        1.94718   0.00000   0.00000  -0.00000  -0.00000   1.94718
   A48        1.86085   0.00000   0.00000  -0.00000  -0.00000   1.86085
   A49        1.92692  -0.00000   0.00000  -0.00000  -0.00000   1.92692
   A50        1.86059  -0.00000   0.00000  -0.00000  -0.00000   1.86058
   A51        2.00382  -0.00000   0.00000   0.00000   0.00000   2.00382
   A52        1.92030   0.00000   0.00000  -0.00000  -0.00000   1.92030
   A53        1.87484   0.00000   0.00000  -0.00000  -0.00000   1.87484
   A54        1.85462  -0.00000   0.00000  -0.00000  -0.00000   1.85462
   A55        1.94120  -0.00000   0.00000   0.00000   0.00000   1.94121
   A56        2.47385  -0.00000   0.00000  -0.00001  -0.00001   2.47384
   A57        0.96900   0.00000   0.00000   0.00000   0.00000   0.96901
    D1       -0.70133  -0.00000   0.00000  -0.00001  -0.00001  -0.70134
    D2       -2.84921   0.00000   0.00000  -0.00001  -0.00001  -2.84922
    D3        1.41309  -0.00000   0.00000  -0.00001  -0.00001   1.41308
    D4       -2.75962  -0.00000   0.00000  -0.00001  -0.00001  -2.75963
    D5        1.37568   0.00000   0.00000  -0.00001  -0.00001   1.37567
    D6       -0.64521   0.00000   0.00000  -0.00001  -0.00001  -0.64521
    D7        1.47409  -0.00000   0.00000  -0.00001  -0.00001   1.47407
    D8       -0.67380  -0.00000   0.00000  -0.00001  -0.00001  -0.67381
    D9       -2.69468  -0.00000   0.00000  -0.00001  -0.00001  -2.69469
   D10       -3.04894   0.00000   0.00000   0.00001   0.00001  -3.04893
   D11        1.09127   0.00000   0.00000   0.00001   0.00001   1.09128
   D12       -0.90312  -0.00000   0.00000   0.00001   0.00001  -0.90311
   D13       -1.00131   0.00000   0.00000   0.00001   0.00001  -1.00130
   D14        3.13890   0.00000   0.00000   0.00001   0.00001   3.13890
   D15        1.14451  -0.00000   0.00000   0.00001   0.00001   1.14452
   D16        1.05332   0.00000   0.00000   0.00001   0.00001   1.05333
   D17       -1.08966   0.00000   0.00000   0.00001   0.00001  -1.08966
   D18       -3.08405   0.00000   0.00000   0.00001   0.00001  -3.08404
   D19       -0.78648   0.00000   0.00000  -0.00000  -0.00000  -0.78649
   D20       -2.92641  -0.00000   0.00000  -0.00001  -0.00001  -2.92642
   D21        1.36297   0.00000   0.00000  -0.00001  -0.00001   1.36297
   D22       -2.85471  -0.00000   0.00000  -0.00000  -0.00000  -2.85471
   D23        1.28855  -0.00000   0.00000  -0.00000  -0.00000   1.28855
   D24       -0.70525  -0.00000   0.00000  -0.00000  -0.00000  -0.70525
   D25        1.32196   0.00000   0.00000  -0.00000  -0.00000   1.32195
   D26       -0.81797  -0.00000   0.00000  -0.00000  -0.00000  -0.81797
   D27       -2.81177  -0.00000   0.00000  -0.00000  -0.00000  -2.81177
   D28       -1.04591   0.00000   0.00000   0.00000   0.00000  -1.04591
   D29        3.06664   0.00000   0.00000   0.00000   0.00000   3.06664
   D30        1.02435  -0.00000   0.00000   0.00000   0.00000   1.02435
   D31        1.10835   0.00000   0.00000   0.00000   0.00000   1.10835
   D32       -1.06229   0.00000   0.00000   0.00000   0.00000  -1.06228
   D33       -3.10458   0.00000   0.00000   0.00000   0.00000  -3.10457
   D34       -3.10269   0.00000   0.00000   0.00000   0.00000  -3.10268
   D35        1.00986   0.00000   0.00000   0.00000   0.00000   1.00987
   D36       -1.03243  -0.00000   0.00000   0.00000   0.00000  -1.03242
   D37       -3.05521  -0.00000   0.00000  -0.00000  -0.00000  -3.05522
   D38       -1.01732   0.00000   0.00000  -0.00000  -0.00000  -1.01732
   D39        1.17265  -0.00000   0.00000  -0.00000  -0.00000   1.17265
   D40       -0.94909   0.00000   0.00000  -0.00000  -0.00000  -0.94909
   D41        1.08881   0.00000   0.00000  -0.00000  -0.00000   1.08880
   D42       -3.00441  -0.00000   0.00000  -0.00000  -0.00000  -3.00442
   D43        1.15004   0.00000   0.00000  -0.00000  -0.00000   1.15004
   D44       -3.09525   0.00000   0.00000  -0.00000  -0.00000  -3.09525
   D45       -0.90528  -0.00000   0.00000  -0.00000  -0.00000  -0.90528
   D46        0.65104   0.00000   0.00000   0.00005   0.00005   0.65110
   D47       -1.57273   0.00000   0.00000   0.00006   0.00006  -1.57268
   D48        2.61726   0.00000   0.00000   0.00005   0.00005   2.61732
   D49       -0.48470   0.00000   0.00000  -0.00005  -0.00005  -0.48475
   D50        3.13877   0.00000   0.00000   0.00000   0.00000   3.13878
   D51       -1.08695   0.00000   0.00000   0.00000   0.00000  -1.08695
   D52        1.07391   0.00000   0.00000   0.00000   0.00000   1.07391
   D53       -1.02922  -0.00000   0.00000   0.00000   0.00000  -1.02921
   D54        1.02824  -0.00000   0.00000   0.00000   0.00000   1.02825
   D55       -3.09408  -0.00000   0.00000   0.00000   0.00000  -3.09408
   D56        1.03458  -0.00000   0.00000   0.00000   0.00000   1.03459
   D57        3.09204   0.00000   0.00000   0.00000   0.00000   3.09205
   D58       -1.03028  -0.00000   0.00000   0.00000   0.00000  -1.03028
   D59       -2.85110   0.00000   0.00000   0.00001   0.00001  -2.85109
   D60       -0.74322   0.00000   0.00000   0.00001   0.00001  -0.74321
   D61        1.37217   0.00000   0.00000   0.00001   0.00001   1.37218
   D62       -0.75405   0.00000   0.00000   0.00001   0.00001  -0.75404
   D63        1.35384   0.00000   0.00000   0.00001   0.00001   1.35385
   D64       -2.81395   0.00000   0.00000   0.00001   0.00001  -2.81394
   D65        1.32737   0.00000   0.00000   0.00001   0.00001   1.32739
   D66       -2.84793   0.00000   0.00000   0.00001   0.00001  -2.84791
   D67       -0.73253   0.00000   0.00000   0.00001   0.00001  -0.73252
   D68       -2.95917   0.00000   0.00000   0.00001   0.00001  -2.95916
   D69       -0.88541  -0.00000   0.00000   0.00001   0.00001  -0.88540
   D70        1.32011   0.00000   0.00000   0.00001   0.00001   1.32012
   D71       -0.84586  -0.00000   0.00000   0.00001   0.00001  -0.84585
   D72        1.22789  -0.00000   0.00000   0.00001   0.00001   1.22790
   D73       -2.84977   0.00000   0.00000   0.00001   0.00001  -2.84976
   D74        1.25918   0.00000   0.00000   0.00001   0.00001   1.25919
   D75       -2.95025   0.00000   0.00000   0.00001   0.00001  -2.95024
   D76       -0.74472   0.00000   0.00000   0.00001   0.00001  -0.74471
   D77       -1.37072   0.00000   0.00000   0.00001   0.00001  -1.37071
   D78        0.81384  -0.00000   0.00000   0.00001   0.00001   0.81385
   D79        2.93183   0.00000   0.00000   0.00001   0.00001   2.93184
   D80        0.86209  -0.00000   0.00000  -0.00000  -0.00000   0.86209
         Item               Value     Threshold  Converged?
 Maximum Force            0.000000     0.000015     YES
 RMS     Force            0.000000     0.000010     YES
 Maximum Displacement     0.000045     0.000060     YES
 RMS     Displacement     0.000009     0.000040     YES
 Predicted change in Energy=-1.565022D-11
 Optimization completed.
    -- Stationary point found.
                           ----------------------------
                           !   Optimized Parameters   !
                           ! (Angstroms and Degrees)  !
 --------------------------                            --------------------------
 ! Name  Definition              Value          Derivative Info.                !
 --------------------------------------------------------------------------------
 ! R1    R(1,2)                  1.531          -DE/DX =    0.0                 !
 ! R2    R(1,9)                  1.5072         -DE/DX =    0.0                 !
 ! R3    R(1,16)                 1.5229         -DE/DX =    0.0                 !
 ! R4    R(1,23)                 1.5254         -DE/DX =    0.0                 !
 ! R5    R(2,3)                  1.5199         -DE/DX =    0.0                 !
 ! R6    R(2,4)                  1.1006         -DE/DX =    0.0                 !
 ! R7    R(2,5)                  1.0923         -DE/DX =    0.0                 !
 ! R8    R(3,6)                  1.0927         -DE/DX =    0.0                 !
 ! R9    R(3,7)                  1.0884         -DE/DX =    0.0                 !
 ! R10   R(3,8)                  1.0925         -DE/DX =    0.0                 !
 ! R11   R(4,30)                 2.4425         -DE/DX =    0.0                 !
 ! R12   R(9,10)                 1.5204         -DE/DX =    0.0                 !
 ! R13   R(9,11)                 1.0879         -DE/DX =    0.0                 !
 ! R14   R(9,12)                 1.093          -DE/DX =    0.0                 !
 ! R15   R(10,13)                1.0927         -DE/DX =    0.0                 !
 ! R16   R(10,14)                1.0911         -DE/DX =    0.0                 !
 ! R17   R(10,15)                1.091          -DE/DX =    0.0                 !
 ! R18   R(16,17)                1.5224         -DE/DX =    0.0                 !
 ! R19   R(16,18)                1.09           -DE/DX =    0.0                 !
 ! R20   R(16,19)                1.0936         -DE/DX =    0.0                 !
 ! R21   R(17,20)                1.0929         -DE/DX =    0.0                 !
 ! R22   R(17,21)                1.095          -DE/DX =    0.0                 !
 ! R23   R(17,22)                1.0907         -DE/DX =    0.0                 !
 ! R24   R(23,24)                1.5157         -DE/DX =    0.0                 !
 ! R25   R(23,25)                1.0905         -DE/DX =    0.0                 !
 ! R26   R(23,26)                1.0959         -DE/DX =    0.0                 !
 ! R27   R(24,27)                1.0928         -DE/DX =    0.0                 !
 ! R28   R(24,28)                1.0935         -DE/DX =    0.0                 !
 ! R29   R(24,29)                1.0908         -DE/DX =    0.0                 !
 ! R30   R(26,30)                2.4767         -DE/DX =    0.0                 !
 ! A1    A(2,1,9)              109.5121         -DE/DX =    0.0                 !
 ! A2    A(2,1,16)             107.6528         -DE/DX =    0.0                 !
 ! A3    A(2,1,23)             112.2342         -DE/DX =    0.0                 !
 ! A4    A(9,1,16)             108.6291         -DE/DX =    0.0                 !
 ! A5    A(9,1,23)             111.6895         -DE/DX =    0.0                 !
 ! A6    A(16,1,23)            106.9499         -DE/DX =    0.0                 !
 ! A7    A(1,2,3)              117.1784         -DE/DX =    0.0                 !
 ! A8    A(1,2,4)              105.568          -DE/DX =    0.0                 !
 ! A9    A(1,2,5)              105.0534         -DE/DX =    0.0                 !
 ! A10   A(3,2,4)              110.1789         -DE/DX =    0.0                 !
 ! A11   A(3,2,5)              109.0087         -DE/DX =    0.0                 !
 ! A12   A(4,2,5)              109.5725         -DE/DX =    0.0                 !
 ! A13   A(2,3,6)              106.0417         -DE/DX =    0.0                 !
 ! A14   A(2,3,7)              113.313          -DE/DX =    0.0                 !
 ! A15   A(2,3,8)              113.7413         -DE/DX =    0.0                 !
 ! A16   A(6,3,7)              106.7426         -DE/DX =    0.0                 !
 ! A17   A(6,3,8)              107.3682         -DE/DX =    0.0                 !
 ! A18   A(7,3,8)              109.1801         -DE/DX =    0.0                 !
 ! A19   A(2,4,30)             161.3911         -DE/DX =    0.0                 !
 ! A20   A(1,9,10)             116.265          -DE/DX =    0.0                 !
 ! A21   A(1,9,11)             106.72           -DE/DX =    0.0                 !
 ! A22   A(1,9,12)             105.8647         -DE/DX =    0.0                 !
 ! A23   A(10,9,11)            109.7385         -DE/DX =    0.0                 !
[...]
 ,-0.00003866,-0.00190209,-0.00184959,0.00086889,0.00003854,-0.00008191
 ,-0.00015382,-0.00026221,0.00014044,0.00005531,0.00055846,0.00007231,0
 .00057809,0.00001695,0.00008946,-0.00000600,0.00015369,0.00020974,0.00
 034718,0.00002750,0.00020503,-0.00007360,0.04294464,-0.11400977,0.0329
 9222,0.02607379,0.56344346,-0.01055019,0.01399134,-0.01907561,-0.00054
 507,-0.00011032,0.00098400,0.00179398,-0.00098477,-0.00033522,0.000009
 87,-0.00010262,-0.00020139,-0.00018773,-0.00017849,0.00014743,0.000044
 87,0.00028672,-0.00048838,0.00117566,0.00140355,-0.00189729,-0.0000479
 2,0.00001934,-0.00004164,0.00086592,-0.00054485,-0.00001083,-0.0001034
 0,0.00002960,-0.00054303,-0.00057972,0.00023941,0.00001463,-0.00030518
 ,-0.00024759,-0.00010038,-0.00011116,-0.00008897,0.00013848,0.00000697
 ,0.00018993,0.00033253,-0.00012207,0.00012311,0.00007198,0.00335445,0.
 00085455,-0.00049216,-0.00017145,0.00001159,0.00017163,-0.00054287,0.0
 0029417,0.00027167,-0.00104141,0.00043840,-0.00012858,-0.00003247,-0.0
 0004537,-0.00009207,0.00002086,0.00007164,-0.00000293,0.00002103,0.000
 06833,0.00001585,-0.05030263,0.03543203,-0.12444912,-0.02393590,0.0465
 6960,0.54978203,-0.01523548,0.00759282,0.01455229,0.00051744,-0.003143
 04,0.00095766,0.00009648,0.00019678,-0.00000319,-0.00017741,-0.0003377
 4,-0.00006804,-0.00056262,0.00041027,0.00064107,-0.00010876,-0.0000243
 4,-0.00003148,0.00008246,-0.00002941,-0.00005531,-0.00005579,-0.000051
 79,0.00001995,-0.00033192,0.00153335,0.00111070,0.00022585,-0.00019635
 ,0.00093121,-0.00012829,-0.00007206,0.00001850,0.00010252,-0.00012170,
 -0.00021307,0.00027365,0.00027927,-0.00044922,0.00031446,-0.00081572,-
 0.00118312,0.00003614,0.00004119,-0.00014664,-0.00034900,0.00128201,-0
 .00214049,0.00014951,-0.00007379,0.00000876,0.00095511,0.00012963,-0.0
 0065936,0.00015660,-0.00021298,-0.00018439,0.00003106,0.00005800,-0.00
 000045,0.00000369,-0.00009661,0.00001191,-0.00005124,-0.00004730,-0.00
 010471,-0.15269993,0.09979022,0.08143847,-0.01111488,0.01382657,0.0094
 4100,0.16379777,-0.01573687,0.00898229,0.01697174,-0.00063755,-0.00270
 286,0.00230468,0.00007829,0.00013161,0.00025368,-0.00025275,-0.0004336
 5,0.00014687,-0.00076227,0.00072272,0.00067011,-0.00009393,0.00000762,
 -0.00008055,-0.00023353,-0.00005124,-0.00009101,0.00001646,0.00003885,
 -0.00006257,0.,0.00096254,-0.00021004,-0.00087302,-0.00184417,-0.00102
 488,-0.00011877,-0.00015459,-0.00005311,0.00020774,0.00007633,-0.00006
 044,-0.00013797,-0.00016316,0.00025765,-0.00133987,-0.00224213,-0.0002
 2019,0.00008150,-0.00006768,0.00002019,-0.00137776,0.00045946,0.000878
 60,-0.00006311,-0.00010090,-0.00012002,-0.00005557,0.00013455,0.000736
 72,-0.00023200,0.00018275,0.00003710,0.00001612,0.00009251,-0.00003206
 ,0.00017959,-0.00024591,0.00002215,-0.00006996,-0.00000601,0.00003120,
 0.10780085,-0.15471938,-0.09127954,0.00750799,-0.00999425,-0.00644475,
 -0.11222423,0.17026551,0.01623482,-0.01037818,-0.01833806,-0.00006347,
 0.00365285,-0.00182647,-0.00004166,-0.00005002,-0.00039729,0.00000411,
 0.00037492,0.00025904,0.00109331,-0.00059089,-0.00072652,0.00012317,-0
 .00001729,0.00009375,0.00018423,0.00007410,0.00006090,0.00007583,-0.00
 001538,0.00007969,-0.00047025,-0.00110462,-0.00036462,-0.00050598,-0.0
 0083046,0.00001992,0.00002757,0.00009978,0.00002040,0.00004086,0.00005
 508,-0.00001301,-0.00022391,-0.00007233,0.00015414,-0.00060974,-0.0010
 3764,0.00048139,0.00004848,0.00022889,-0.00006633,0.00296829,-0.001679
 87,-0.00046152,-0.00042466,0.00010706,0.00001220,-0.00084588,0.0012753
 4,-0.00059369,-0.00043214,0.00009480,0.00033737,-0.00004934,0.00003148
 ,-0.00011820,0.00018052,-0.00015539,0.00001383,0.00006595,0.00006164,0
 .00014830,0.08211466,-0.08127807,-0.11525449,-0.01426355,0.01557828,0.
 01134117,-0.09340046,0.08287635,0.13230367,-0.01184516,-0.01509287,-0.
 00475061,-0.00022467,-0.00086042,-0.00101188,-0.00008505,0.00013302,0.
 00006211,-0.00061381,0.00001750,0.00083566,0.00018275,0.00017501,-0.00
 009326,-0.00002303,0.00000205,0.00001252,-0.00003806,-0.00004920,-0.00
 002475,0.00008353,0.00000057,0.00001152,-0.00048317,-0.00026106,0.0030
 5308,0.00017670,0.00024488,0.00050304,0.00006343,0.00014347,-0.0000620
 6,-0.00032116,-0.00066939,-0.00040721,0.00017550,0.00012669,-0.0002535
 8,0.00015589,-0.00001876,-0.00052043,0.00001033,-0.00001050,-0.0000636
 9,0.00023397,0.00048066,-0.00059330,0.00014447,0.00054389,-0.00047873,
 0.00015592,0.00003054,0.00033963,-0.00015819,0.00005158,-0.00002601,-0
 .00002817,0.00006991,-0.00003454,0.00036755,0.00026989,-0.00145187,-0.
 00005594,-0.00012707,0.00000511,-0.12347522,-0.09000956,-0.06769636,-0
 .01274966,-0.01095942,-0.01395328,0.01406276,0.01580734,0.01129848,0.1
 3683297,-0.01093898,-0.01529560,-0.00474180,-0.00063938,0.00001913,0.0
 0012963,0.00016479,-0.00027491,-0.00008670,0.00117190,0.00220004,-0.00
 016231,0.00016399,-0.00026823,-0.00020526,0.00017369,0.00007044,-0.000
 08122,-0.00009589,0.00018512,0.00015456,-0.00007791,-0.00003497,-0.000
 03709,-0.00027339,-0.00050745,0.00195621,-0.00007857,0.00022145,0.0002
 0647,-0.00014899,-0.00009022,0.00011948,-0.00021621,-0.00013636,-0.000
 34970,0.00004842,0.00003381,-0.00002324,0.00009021,-0.00008197,-0.0001
 2691,-0.00000120,-0.00003240,-0.00003595,-0.00023312,-0.00075996,0.000
 19173,0.00025466,-0.00082603,0.00032891,0.00020213,-0.00043789,-0.0001
 4351,0.00010369,0.00025109,-0.00041519,0.00001029,-0.00008781,-0.00015
 712,-0.00010895,0.00226519,0.00037614,0.00001664,0.00033470,-0.0003589
 0,-0.09499232,-0.16621217,-0.08958624,0.01050128,0.01362158,0.00822047
 ,-0.00702715,-0.00834861,-0.00714644,0.09931356,0.17793070,0.01804633,
 0.02399222,0.01049675,-0.00110719,0.00088381,0.00191728,0.00012499,-0.
 00027063,-0.00028288,0.00139653,0.00087269,-0.00048086,0.00003923,-0.0
 0012950,-0.00008655,0.00014822,-0.00001770,0.00001385,-0.00005027,0.00
 003406,-0.00002170,-0.00017298,0.00001174,-0.00002280,0.00189976,0.002
 36421,-0.00545894,0.00023041,-0.00021844,-0.00031936,0.00004246,-0.000
 07438,-0.00000081,0.00116813,0.00153933,0.00072571,-0.00011237,0.00000
 561,0.00012282,-0.00021359,-0.00006874,0.00017376,-0.00007179,0.000015
 30,0.00003285,0.00117837,0.00006161,0.00177961,0.00016727,0.00071251,-
 0.00097043,-0.00007659,-0.00022902,-0.00010249,-0.00007901,-0.00013987
 ,-0.00012929,-0.00007192,-0.00036190,0.00009247,-0.00136199,0.00113869
 ,-0.00303243,-0.00004629,-0.00003892,-0.00008806,-0.07638359,-0.100927
 56,-0.12801415,-0.01403072,-0.01053634,-0.01166586,-0.00735001,-0.0073
 9268,-0.00578345,0.07778299,0.08815121,0.14361351,-0.00229534,0.003099
 71,-0.00493020,-0.00071634,0.00046318,0.00020534,-0.00051348,0.0003823
 3,-0.00026879,0.00002579,-0.00001970,-0.00004497,0.00015045,-0.0001045
 8,-0.00004667,0.00003172,-0.00014458,0.00025523,0.00033000,-0.00042173
 ,0.00044994,-0.00000346,-0.00009583,0.00016549,-0.00074208,-0.00044314
 ,-0.00034198,0.00011270,0.00003242,0.00011446,0.00025623,0.00013601,0.
 00010420,0.00013764,0.00005312,0.00008387,-0.00002641,0.00002591,0.000
 02553,-0.00000246,-0.00001761,0.00002491,0.00004050,-0.00004370,-0.000
 04494,0.00094219,0.00053928,-0.00039968,-0.00003224,0.00003741,0.00005
 039,-0.00004196,0.00002537,0.00005728,-0.00028962,0.00023063,-0.000226
 26,-0.00000138,-0.00002705,-0.00003182,-0.00000162,-0.00000193,-0.0000
 3257,-0.00000236,-0.00000805,-0.00001324,0.01176052,0.00778973,-0.0135
 2318,-0.14614109,-0.06489542,0.11771698,0.00134602,0.00033167,0.000207
 79,0.00044210,-0.00055681,0.00032203,0.15620256,0.00285300,-0.00178733
 ,0.00254213,0.00043862,-0.00038524,-0.00017347,0.00037423,0.00017721,0
 .00007552,0.00002927,0.00001641,0.00014377,-0.00008171,0.00007820,0.00
 004254,0.00000953,0.00003773,-0.00007181,-0.00031225,0.00005879,-0.000
 23283,0.00005846,0.00010775,-0.00020318,-0.00000623,0.00049338,0.00022
 033,-0.00010304,-0.00003004,0.00018842,0.00028844,0.00006866,-0.000040
 56,0.00009355,-0.00005616,0.00005317,0.00003041,-0.00000398,-0.0000377
 9,0.00001755,-0.00006619,-0.00001289,0.00004484,-0.00000645,-0.0000436
 0,-0.00084466,-0.00035723,0.00039646,0.00007705,-0.00004033,-0.0000420
 2,0.00004988,-0.00005126,-0.00001334,0.00027656,-0.00013527,0.00019253
 ,0.00000793,0.00001823,0.00003990,-0.00001153,0.00001857,0.00001737,0.
 00000158,0.00000286,0.00000481,-0.01106300,-0.00834198,0.01244959,-0.0
 6302855,-0.08615855,0.07438033,-0.00061945,0.00015661,-0.00052191,0.00
 005068,0.00046477,-0.00017279,0.06673786,0.09175010,-0.00382874,0.0012
 7551,-0.00193633,-0.00035490,-0.00019960,0.00065550,0.00010848,0.00001
 842,0.00019745,0.00017757,0.00017435,0.00010530,0.00000664,0.00003865,
 -0.00003552,0.00005659,0.00002521,0.00001304,-0.00006133,0.00003532,-0
 .00026099,0.00005007,0.00006355,-0.00014222,-0.00054900,-0.00057352,-0
 .00009621,0.00008607,0.00003878,0.00005608,0.00019382,0.00005679,-0.00
 001413,0.00009747,0.00004470,0.00006149,-0.00001984,0.00002456,0.00002
 226,-0.00000284,0.00000863,0.00000527,0.00001326,-0.00002815,-0.000022
 68,0.00104865,0.00055793,-0.00026360,-0.00002526,0.00003723,0.00004642
 ,-0.00004602,0.00005093,0.00001201,-0.00028629,0.00018491,-0.00024273,
 -0.00001367,-0.00002502,-0.00003207,0.00000503,0.00005327,-0.00001432,
 -0.00000077,-0.00001113,0.00000288,0.01349814,0.00714173,-0.01481225,0
 .11570539,0.07558429,-0.18564826,0.00015847,0.00016128,0.00123487,0.00
 019199,-0.00022981,0.00015953,-0.12479390,-0.08434892,0.19833772,0.000
 98343,0.00010368,0.00032736,-0.00011441,0.00023248,0.00007140,-0.00006
 666,0.00029362,0.00004211,-0.00007539,0.00000947,0.00005861,0.00005692
 ,-0.00002366,-0.00006042,0.00004513,-0.00003251,0.00004746,-0.00012254
 ,0.00004168,0.00053995,0.00005599,0.00001052,-0.00004353,-0.00061129,-
 0.00075934,-0.00025537,0.00021608,0.00028329,0.00007946,0.00079002,-0.
 00072702,0.00042492,0.00034463,0.00011461,0.00030854,-0.00001640,0.000
 04397,0.00002137,-0.00031473,0.00021820,-0.00002327,0.00000169,-0.0001
 2446,0.00007320,0.00011144,-0.00012775,0.00016702,0.00002533,-0.000017
 31,-0.00000723,-0.00001067,-0.00009621,0.00000009,0.00004516,0.0001029
 5,-0.00009558,-0.00000187,0.00001853,-0.00001738,0.00005248,0.00008182
 ,0.00011538,0.00001430,0.00004484,-0.00003422,-0.01306154,-0.01310430,
 -0.00618248,-0.17766260,-0.10190752,-0.08501006,-0.00004351,0.00002180
 ,0.00013621,-0.00112418,0.00369978,-0.00143944,-0.01285037,-0.01013514
 ,-0.00967138,0.19086191,-0.00122161,0.00075557,-0.00094365,-0.00020981
 ,0.00000689,0.00021280,-0.00025855,0.00045669,-0.00008720,-0.00002673,
 -0.00025323,0.00004910,0.00008496,0.00004007,0.00001676,-0.00001275,-0
 .00012888,0.00018253,-0.00002288,-0.00034420,0.00002277,0.00001725,-0.
 00001684,0.00004030,-0.00044497,-0.00101952,0.00091760,-0.00007626,0.0
 0005913,0.00004193,-0.00035554,-0.00152172,0.00127634,0.00002520,0.000
 15640,-0.00005543,-0.00000481,-0.00000565,0.00001576,0.00010591,-0.000
 05083,-0.00008817,0.00004768,0.00007407,-0.00006416,0.00027206,0.00019
 582,-0.00031169,-0.00004600,0.00013186,0.00003376,0.00000769,0.0000297
 6,0.00000226,-0.00009779,0.00001852,-0.00006150,-0.00000344,-0.0000029
 7,-0.00001116,0.00001698,-0.00017317,-0.00003050,-0.00000299,-0.000046
 42,0.00001665,0.01431410,0.01343230,0.00817834,-0.10240789,-0.13707221
 ,-0.06952260,-0.00051662,0.00040340,-0.00050106,0.00200417,-0.00219336
 ,0.00207017,-0.00715282,-0.00735595,-0.00632391,0.11538001,0.14492336,
 0.00025131,-0.00149314,0.00120062,-0.00029402,0.00012924,-0.00029154,-
 0.00020557,0.00040310,-0.00007659,-0.00018214,-0.00024022,0.00013727,0
 .00013409,0.00000013,0.00001232,-0.00000621,-0.00009838,0.00026848,0.0
 0040219,-0.00062688,-0.00039498,0.00010094,0.00000380,-0.00000696,-0.0
 0082334,0.00038729,-0.00055362,0.00011109,0.00006877,0.00030725,0.0008
 4259,0.00130837,-0.00047230,0.00031723,-0.00009509,0.00023089,-0.00000
 256,0.00001321,-0.00000060,-0.00004234,0.00004752,-0.00003052,0.000082
 55,-0.00011897,-0.00006878,-0.00025374,0.00002360,0.00001708,0.0000991
 2,-0.00004740,-0.00002170,0.00007120,-0.00011435,0.00002311,0.00011560
 ,0.00008517,-0.00003959,0.00001937,0.00004761,0.00000998,0.00005967,0.
 00000753,0.00012115,0.00000186,0.00004804,-0.00004864,-0.01353626,-0.0
 1293737,-0.01077278,-0.08379561,-0.06959649,-0.10322179,0.00044150,0.0
 0041849,0.00030171,-0.00275016,0.00304028,-0.00154996,0.01598447,0.012
 93108,0.01265480,0.09431045,0.07271694,0.10910228,0.00035668,-0.000344
 66,-0.00028464,0.00023118,0.00022511,-0.00019065,-0.00073308,-0.000616
 77,0.00061552,0.00036156,0.00055779,-0.00013943,-0.00009253,-0.0000211
 8,-0.00009287,0.00000713,-0.00000321,0.00007014,-0.00134331,-0.0013552
 2,0.00128877,-0.00009027,0.00006970,-0.00007831,-0.00049742,-0.0002761
 6,-0.00008363,0.00006225,0.00011255,0.00013024,0.00021130,-0.00007611,
 -0.00011280,0.00014829,-0.00002094,0.00007680,0.00003950,0.00005445,-0
 .00003982,-0.00012447,0.00002609,-0.00011675,-0.00001154,-0.00005249,0
 .00003446,0.00009421,0.00013342,0.00017777,0.00007541,-0.00008027,-0.0
 0002014,0.00012219,-0.00012439,-0.00003346,0.00001144,-0.00001971,-0.0
 0014717,-0.00000523,-0.00004936,0.00000055,-0.00011122,0.00029026,-0.0
 0003230,-0.00000391,0.00001004,-0.00003197,-0.01138417,0.01426999,0.01
 003999,-0.09771295,0.08903473,0.05409808,-0.00142745,0.00237328,-0.003
 35968,0.00021524,0.00106763,0.00083815,-0.00821442,0.01495345,0.008656
 47,0.01201388,-0.01883285,-0.01131825,0.10733677,-0.00012266,0.0000008
 0,-0.00075366,0.00038244,-0.00093045,0.00048730,0.00059673,-0.00012018
 ,0.00055013,0.00031235,0.00047223,0.00028158,-0.00015340,0.00016557,-0
 .00004286,0.00006704,0.00017080,-0.00033729,-0.00141067,0.00016846,-0.
 00005567,0.00010051,0.00025154,-0.00044574,-0.00011730,-0.00018073,0.0
 0007347,-0.00004602,0.00009344,-0.00006997,0.00013784,-0.00016047,-0.0
 0012914,0.00005332,-0.00005618,0.00006217,-0.00001986,-0.00000461,0.00
 002198,-0.00004249,0.00007143,0.00006353,-0.00001451,0.00002772,0.0000
 2163,0.00029424,-0.00009243,0.00025755,-0.00000300,-0.00003510,0.00001
 050,-0.00014935,0.00009241,0.00003034,-0.00008028,0.00001951,0.0000495
 7,-0.00001673,-0.00001821,-0.00000315,-0.00001834,0.00012407,-0.000009
 61,0.00001423,0.00001330,0.00004181,0.00976622,-0.01310391,-0.00609134
 ,0.09091517,-0.21609648,-0.10419870,0.00123105,-0.00047949,0.00182125,
 -0.00105511,0.00013869,-0.00056785,-0.00611186,0.01154611,0.00651167,0
 .00674417,-0.01072352,-0.00606493,-0.10104177,0.22960428,0.00016521,-0
 .00001189,0.00078412,0.00011951,0.00047817,0.00022766,0.00128607,0.000
 21264,-0.00049212,0.00000709,0.00055671,-0.00052626,-0.00002876,-0.000
 22752,-0.00003745,0.00014309,0.00013478,-0.00023887,0.00082865,0.00094
 781,-0.00062117,-0.00000200,0.00000910,-0.00011498,-0.00002955,-0.0000
 4142,-0.00005483,0.00001961,-0.00001836,0.00005392,0.00000646,-0.00002
 701,-0.00000561,0.00002067,0.00003449,0.00001030,0.00003614,0.00002016
 ,-0.00003674,-0.00002820,-0.00003361,-0.00009476,-0.00001199,-0.000033
 48,0.00002002,-0.00017250,0.00012837,-0.00002088,0.00005560,-0.0000948
 0,-0.00001273,0.00016850,-0.00012552,-0.00007394,0.00006118,-0.0000474
 4,-0.00012911,0.00000997,-0.00003991,-0.00000747,-0.00011622,0.0002412
 9,-0.00002709,-0.00001195,0.00000830,-0.00005265,-0.01177079,0.0184339
 7,0.01246359,0.05778755,-0.10646924,-0.11453290,-0.00332649,0.00228024
 ,-0.00261729,0.00033876,0.00020145,0.00081727,0.00888866,-0.01803516,-
 0.01057368,0.00606469,-0.00678729,-0.00628894,-0.06133970,0.10828962,0
 .12221082,0.00035392,-0.00039108,0.00037732,-0.00278975,-0.00507963,0.
 00176418,0.00081747,-0.00027916,0.00000860,-0.00178682,0.00135535,-0.0
 0017481,-0.00039236,-0.00128334,-0.00013861,0.00048983,0.00030487,-0.0
 0012717,0.00011468,0.00033950,0.00020849,-0.00032631,-0.00021797,-0.00
 009963,0.00068138,-0.00011031,-0.00051736,-0.00011762,-0.00004482,-0.0
 0010004,0.00004730,0.00009200,0.00018257,0.00007880,0.00024924,0.00004
 228,0.00005819,-0.00005220,-0.00004373,0.00000876,-0.00002005,-0.00006
 233,0.00006358,-0.00009112,0.00000057,-0.00116036,0.00045004,-0.001487
 83,0.00025336,0.00173759,0.00009868,0.00016322,-0.00017213,0.00007057,
 0.00036557,0.00032833,0.00031457,0.00012142,0.00016284,-0.00003969,-0.
 00104776,-0.00126347,0.00030058,0.00006610,0.00035862,-0.00039584,0.00
 063294,0.00085834,0.00036576,-0.00080588,0.00000436,-0.00100716,0.0001
 3476,-0.00021349,-0.00011356,-0.00207762,-0.00159378,-0.00081713,0.000
 09624,-0.00018732,-0.00040018,0.00045777,-0.00058171,-0.00013505,0.000
 46493,-0.00021198,0.00083077,0.00503426,-0.00087602,-0.00011562,-0.000
 53788,-0.00442047,-0.00663950,0.00123733,0.00056739,-0.00092567,0.0000
 7540,-0.00012578,-0.00232451,0.00015675,-0.00043041,-0.00096123,-0.000
 10916,-0.00012348,-0.00002425,0.00015643,-0.00008385,-0.00002149,-0.00
 025725,-0.00069856,0.00008473,-0.00035116,0.00061310,0.00036278,0.0005
 0671,-0.00030290,-0.00020513,-0.00025335,-0.00004741,-0.00002238,-0.00
 006858,-0.00007117,-0.00009858,-0.00001273,-0.00003503,-0.00014266,-0.
 00004108,0.00003256,0.00005929,0.00015411,0.00003049,0.00008294,0.0000
 4977,-0.00018437,0.00033559,0.00042622,0.00223610,-0.00359924,0.000707
 20,0.00004244,0.00002450,-0.00011545,-0.00028736,-0.00030302,-0.000225
 83,0.00003222,-0.00125208,0.00034085,-0.00076433,-0.00181630,0.0000864
 0,-0.00024067,0.00015109,-0.00006912,0.00067389,-0.00685680,-0.0047827
 4,0.00051753,-0.00116429,-0.00015512,-0.00076092,-0.00106272,-0.000952
 29,-0.00035205,-0.00214878,-0.00070683,0.00016021,-0.00021943,-0.00034
 765,-0.00039022,0.00022462,-0.00024698,-0.00026338,-0.00095861,0.00001
 555,0.00555245,0.02953676,0.00006507,-0.00021828,0.00025366,0.00136210
 ,0.00066606,0.00113187,-0.00012531,0.00066266,-0.00006586,-0.00095562,
 -0.00131578,-0.00241187,-0.00033401,-0.00040957,0.00008413,-0.00026706
 ,-0.00006585,-0.00002575,0.00042019,0.00000357,0.00012679,0.00029418,-
 0.00006372,0.00018558,-0.00047997,-0.00009660,0.00069045,0.00003917,0.
 00011890,-0.00011570,0.00023841,0.00011513,-0.00005856,-0.00016770,-0.
 00034106,0.00003845,-0.00004749,-0.00002545,0.00008690,-0.00008422,0.0
 0009342,0.00019185,0.00004325,-0.00006297,0.00002808,-0.00115557,0.000
 40280,-0.00120806,-0.00050034,0.00189250,0.00058422,-0.00004275,0.0002
 4600,0.00014134,0.00027958,0.00005253,0.00037320,-0.00004969,0.0005480
 6,0.00008576,0.00049104,-0.00041884,-0.00167989,-0.00014194,-0.0007269
 6,0.00041387,0.00016155,-0.00406177,-0.00365662,-0.00094820,-0.0015932
 8,-0.00034392,-0.00041507,-0.00099521,-0.00030141,-0.00026320,0.000810
 82,-0.00193539,0.00004163,0.00027232,0.00053036,0.00005214,-0.00100571
 ,-0.00054763,0.00139464,0.00019582,-0.00002820,0.00109520,0.00532047,0
 .00743237\\0.00000011,-0.00000006,0.00000025,-0.00000071,-0.00000042,-
 0.00000050,0.00000007,0.00000015,-0.00000153,-0.00000076,0.00000008,-0
 .00000017,-0.00000117,-0.00000030,-0.00000054,-0.00000086,-0.00000014,
 -0.00000133,0.00000008,-0.00000012,-0.00000083,-0.00000044,-0.00000044
 ,-0.00000169,0.00000021,0.00000018,-0.00000088,0.00000076,0.00000009,0
 .00000029,0.00000090,-0.00000004,-0.00000079,-0.00000010,-0.00000002,-
 0.00000087,0.00000104,0.00000008,-0.00000081,0.00000155,0.00000055,-0.
 00000031,0.00000045,0.00000017,0.00000003,-0.00000070,-0.00000060,0.00
 000030,-0.00000126,0.00000042,0.00000126,-0.00000019,0.00000017,0.0000
 0112,-0.00000068,-0.00000007,0.00000004,-0.00000131,-0.00000028,0.0000
 0160,-0.00000100,-0.00000048,0.00000150,-0.00000147,-0.00000035,0.0000
 0038,0.00000009,0.00000044,0.00000043,0.00000178,0.00000022,-0.0000005
 7,0.00000093,0.00000017,0.00000080,0.00000009,-0.00000003,0.00000128,0
 .00000120,0.00000016,0.00000079,0.00000139,0.00000033,-0.00000042,0.00
 000052,0.00000027,0.00000021,-0.00000051,-0.00000015,0.00000094\\\@


 IN-LAWS ARE LIKE SEEDS. YOU DON'T NEED THEM
 BUT THEY COME WITH THE TOMATO.
 Job cpu time:       0 days  3 hours 36 minutes  7.9 seconds.
 Elapsed time:       0 days  0 hours  3 minutes 24.9 seconds.
 File lengths (MBytes):  RWF=    230 Int=      0 D2E=      0 Chk=      7 Scr=      1
 Normal termination of Gaussian 16 at Thu Aug 22 12:46:20 2019.
